/*--------------------------------*- C++ -*----------------------------------*\
| =========                 |                                                 |
| \\      /  F ield         | OpenFOAM: The Open Source CFD Toolbox           |
|  \\    /   O peration     | Version:  2406                                  |
|   \\  /    A nd           | Website:  www.openfoam.com                      |
|    \\/     M anipulation  |                                                 |
\*---------------------------------------------------------------------------*/
FoamFile
{
    version     2.0;
    format      ascii;
    arch        "LSB;label=32;scalar=64";
    class       pointScalarField;
    location    "0";
    object      motionScale;
}
// * * * * * * * * * * * * * * * * * * * * * * * * * * * * * * * * * * * * * //

dimensions      [0 0 0 0 0 0 0];

internalField   nonuniform List<scalar> 
34454
(
0
0
0
0
0
0
0
0
0
0
0
0
0
0
0
0
0
0
0
0
0
0
0
0
0
0
0
0
0
0
0
0
0
0
0
0
0
0
0
0
0
0
0
0
0
0
0
0
0
0
0
0
0
0
0
0
0
0
0
0
0
0
0
0
0
0
0
0
0
0
0
0
0
0
0
0
0
0
0
0
0
0
0
0
0
0
0
0
0
0
0
0
0
0
0
0
0
0
0
0
0
0
0
0
0
0
0
0
0
0
0
0
0
0
0
0
0
0
0
0
0
0
0
0
0
0
0
0
0
0
0
0
0
0
0
0
0
0
0
0
0
0
0
0
0
0
0
0
0
0
0
0
0
0
0
0
0
0
0
0
0
0
0
0
0
0
0
0
0
0
0
0
0
0
0
0
0
0
0
0
0
0
0
0
0
0
0
0
0
0
0
0
0
0
0
0
0
0
0
0
0
0
0
0
0
0
0
0
0
0
0
0
0
0
0
0
0
0
0
0
0
0
0
0
0
0
0
0
0
0
0
0
0
0
0
0
0
0
0
0
0
0
0
0
0
0
0
0
0
0
0
0
0
0
0
0
0
0
0
0
0
0
0
0
0
0
0
0
0
0
0
0
0
0
0
0
0
0
0
0
0
0
0
0
0
0
0
0
0
0
0
0
0
0
0
0
0
0
0
0
0
0
0
0
0
0
0
0
0
0
0
0
0
0
0
0
0
0
0
0
0
0
0
0
0
0
0
0
0
0
0
0
0
0
0
0
0
0
0
0
0
0
0
0
0
0
0
0
0
0
0
0
0
0
0
0
0
0
0
0
0
0
0
0
0
0
0
0
0
0
0
0
0
0
0
0
0
0
0
0
0
0
0
0
0
0
0
0
0
0
0
0
0
0
0
0
0
0
0
0
0
0
0
0
0
0
0
0
0
0
0
0
0
0
0
0
0
0
0
0
0
0
0
0
0
0
0
0
0
0
0
0
0
0
0
0
0
0
0
0
0
0
0
0
0
0
0
0
0
0
0
0
0
0
0
0
0
0
0
0
0
0
0
0
0
0
0
0
0
0
0
0
0
0
0
0
0
0
0
0
0
0
0
0
0
0
0
0
0
0
0
0
0
0
0
0
0
0
0
0
0
0
0
0
0
0
0
0
0
0
0
0
0
0
0
0
0
0
0
0
0
0
0
0
0
0
0
0
0
0
0
0
0
0
0
0
0
0
0
0
0
0
0
0
0
0
0
0
0
0
0
0
0
0
0
0
0
0
0
0
0
0
0
0
0
0
0
0
0
0
0
0
0
0
0
0
0
0
0
0
0
0
0
0
0
0
0
0
0
0
0
0
0
0
0
0
0
0
0
0
0
0
0
0
0
0
0
0
0
0
0
0
0
0
0
0
0
0
0
0
0
0
0
0
0
0
0
0
0
0
0
0
0
0
0
0
0
0
0
0
0
0
0
0
0
0
0
0
0
0
0
0
0
0
0
0
0
0
0
0
0
0
0
0
0
0
0
0
0
0
0
0
0
0
0
0
0
0
0
0
0
0
0
0
0
0
0
0
0
0
0
0
0
0
0
0
0
0
0
0
0
0
0
0
0
0
0
0
0
0
0
0
0
0
0
0
0
0
0
0
0
0
0
0
0
0
0
0
0
0
0
0
0
0
0
0
0
0
0
0
0
0
0
0
0
0
0
0
0
0
0
0
0
0
0
0
0
0
0
0
0
0
0
0
0
0
0
0
0
0
0
0
0
0
0
0
0
0
0
0
0
0
0
0
0
0
0
0
0
0
0
0
0
0
0
0
0
0
0
0
0
0
0
0
0
0
0
0
0
0
0
0
0
0
0
0
0
0
0
0
0
0
0
0
0
0
0
0
0
0
0
0
0
0
0
0
0
0
0
0
0
0
0
0
0
0
0
0
0
0
0
0
0
0
0
0
0
0
0
0
0
0
0
0
0
0
0
0
0
0
0
0
0
0
0
0
0
0
0
0
0
0
0
0
0
0
0
0
0
0
0
0
0
0
0
0
0
0
0
0
0
0
0
0
0
0
0
0
0
0
0
0
0
0
0
0
0
0
0
0
0
0
0
0
0
0
0
0
0
0
0
0
0
0
0
0
0
0
0
0
0
0
0
0
0
0
0
0
0
0
0
0
0
0
0
0
0
0
0
0
0
0
0
0
0
0
0
0
0
0
0
0
0
0
0
0
0
0
0
0
0
0
0
0
0
0
0
0
0
0
0
0
0
0
0
0
0
0
0
0
0
0
0
0
0
0
0
0
0
0
0
0
0
0
0
0
0
0
0
0
0
0
0
0
0
0
0
0
0
0
0
0
0
0
0
0
0
0
0
0
0
0
0
0
0
0
0
0
0
0
0
0
0
0
0
0
0
0
0
0
0
0
0
0
0
0
0
0
0
0
0
0
0
0
0
0
0
0
0
0
0
0
0
0
0
0
0
0
0
0
0
0
0
0
0
0
0
0
0
0
0
0
0
0
0
0
0
0
0
0
0
0
0
0
0
0
0
0
0
0
0
0
0
0
0
0
0
0
0
0
0
0
0
0
0
0
0
0
0
0
0
0
0
0
0
0
0
0
0
0
0
0
0
0
0
0
0
0
0
0
0
0
0
0
0
0
0
0
0
0
0
0
0
0
0
0
0
0
0
0
0
0
0
0
0
0
0
0
0
0
0
0
0
0
0
0
0
0
0
0
0
0
0
0
0
0
0
0
0
0
0
0
0
0
0
0
0
0
0
0
0
0
0
0
0
0
0
0
0
0
0
0
0
0
0
0
0
0
0
0
0
0
0
0
0
0
0
0
0
0
0
0
0
0
0
0
0
0
0
0
0
0
0
0
0
0
0
0
0
0
0
0
0
0
0
0
0
0
0
0
0
0
0
0
0
0
0
0
0
0
0
0
0
0
0
0
0
0
0
0
0
0
0
0
0
0
0
0
0
0
0
0
0
0
0
0
0
0
0
0
0
0
0
0
0
0
0
0
0
0
0
0
0
0
0
0
0
0
0
0
0
0
0
0
0
0
0
0
0
0
0
0
0
0
0
0
0
0
0
0
0
0
0
0
0
0
0
0
0
0
0
0
0
0
0
0
0
0
0
0
0
0
0
0
0
0
0
0
0
0
0
0
0
0
0
0
0
0
0
0
0
0
0
0
0
0
0
0
0
0
0
0
0
0
0
0
0
0
0
0
0
0
0
0
0
0
0
0
0
0
0
0
0
0
0
0
0
0
0
0
0
0
0
0
0
0
0
0
0
0
0
0
0
0
0
0
0
0
0
0
0
0
0
0
0
0
0
0
0
0
0
0
0
0
0
0
0
0
0
0
0
0
0
0
0
0
0
0
0
0
0
0
0
0
0
0
0
0
0
0
0
0
0
0
0
0
0
0
0
0
0
0
0
0
0
0
0
0
0
0
0
0
0
0
0
0
0
0
0
0
0
0
0
0
0
0
0
0
0
0
0
0
0
0
0
0
0
0
0
0
0
0
0
0
0
0
0
0
0
0
0
0
0
0
0
0
0
0
0
0
0
0
0
0
0
0
0
0
0
0
0
0
0
0
0
0
0
0
0
0
0
0
0
0
0
0
0
0
0
0
0
0
0
0
0
0
0
0
0
0
0
0
0
0
0
0
0
0
0
0
0
0
0
0
0
0
0
0
0
0
0
0
0
0
0
0
0
0
0
0
0
0
0
0
0
0
0
0
0
0
0
0
0
0
0
0
0
0
0
0
0
0
0
0
0
0
0
0
0
0
0
0
0
0
0
0
0
0
0
0
0
0
0
0
0
0
0
0
0
0
0
0
0
0
0
0
0
0
0
0
0
0
0
0
0
0
0
0
0
0
0
0
0
0
0
0
0
0
0
0
0
0
0
0
0
0
0
0
0
0
0
0
0
0
0
0
0
0
0
0
0
0
0
0
0
0
0
0
0
0
0
0
0
0
0
0
0
0
0
0
0
0
0
0
0
0
0
0
0
0
0
0
0
0
0
0
0
0
0
0
0
0
0
0
0
0
0
0
0
0
0
0
0
0
0
0
0
0
0
0
0
0
0
0
0
0
0
0
0
0
0
0
0
0
0
0
0
0
0
0
0
0
0
0
0
0
0
0
0
0
0
0
0
0
0
0
0
0
0
0
0
0
0
0
0
0
0
0
0
0
0
0
0
0
0
0
0
0
0
0
0
0
0
0
0
0
0
0
0
0
0
0
0
0
0
0
0
0
0
0
0
0
0
0
0
0
0
0
0
0
0
0
0
0
0
0
0
0
0
0
0
0
0
0
0
0
0
0
0
0
0
0
0
0
0
0
0
0
0
0
0
0
0
0
0
0
0
0
0
0
0
0
0
0
0
0
0
0
0
0
0
0
0
0
0
0
0
0
0
0
0
0
0
0
0
0
0
0
0
0
0
0
0
0
0
0
0
0
0
0
0
0
0
0
0
0
0
0
0
0
0
0
0
0
0
0
0
0
0
0
0
0
0
0
0
0
0
0
0
0
0
0
0
0
0
0
0
0
0
0
0
0
0
0
0
0
0
0
0
0
0
0
0
0
0
0
0
0
0
0
0
0
0
0
0
0
0
0
0
0
0
0
0
0
0
0
0
0
0
0
0
0
0
0
0
0
0
0
0
0
0
0
0
0
0
0
0
0
0
0
0
0
0
0
0
0
0
0
0
0
0
0
0
0
0
0
0
0
0
0
0
0
0
0
0
0
0
0
0
0
0
0
0
0
0
0
0
0
0
0
0
0
0
0
0
0
0
0
0
0
0
0
0
0
0
0
0
0
0
0
0
0
0
0
0
0
0
0
0
0
0
0
0
0
0
0
0
0
0
0
0
0
0
0
0
0
0
0
0
0
0
0
0
0
0
0
0
0
0
0
0
0
0
0
0
0
0
0
0
0
0
0
0
0
0
0
0
0
0
0
0
0
0
0
0
0
0
0
0
0
0
0
0
0
0
0
0
0
0
0
0
0
0
0
0
0
0
0
0
0
0
0
0
0
0
0
0
0
0
0
0
0
0
0
0
0
0
0
0
0
0
0
0
0
0
0
0
0
0
0
0
0
0
0
0
0
0
0
0
0
0
0
0
0
0
0
0
0
0
0
0
0
0
0
0
0
0
0
0
0
0
0
0
0
0
0
0
0
0
0
0
0
0
0
0
0
0
0
0
0
0
0
0
0
0
0
0
0
0
0
0
0
0
0
0
0
0
0
0
0
0
0
0
0
0
0
0
0
0
0
0
0
0
0
0
0
0
0
0
0
0
0
0
0
0
0
0
0
0
0
0
0
0
0
0
0
0
0
0
0
0
0
0
0
0
0
0
0
0
0
0
0
0
0
0
0
0
0
0
0
0
0
0
0
0
0
0
0
0
0
0
0
0
0
0
0
0
0
0
0
0
0
0
0
0
0
0
0
0
0
0
0
0
0
0
0
0
0
0
0
0
0
0
0
0
0
0
0
0
0
0
0
0
0
0
0
0
0
0
0
0
0
0
0
0
0
0
0
0
0
0
0
0
0
0
0
0
0
0
0
0
0
0
0
0
0
0
0
0
0
0
0
0
0
0
0
0
0
0
0
0
0
0
0
0
0
0
0
0
0
0
0
0
0
0
0
0
0
0
0
0
0
0
0
0
0
0
0
0
0
0
0
0
0
0
0
0
0
0
0
0
0
0
0
0
0
0
0
0
0
0
0
0
0
0
0
0
0
0
0
0
0
0
0
0
0
0
0
0
0
0
0
0
0
0
0
0
0
0
0
0
0
0
0
0
0
0
0
0
0
0
0
0
0
0
0
0
0
0
0
0
0
0
0
0
0
0
0
0
0
0
0
0
0
0
0
0
0
0
0
0
0
0
0
0
0
0
0
0
0
0
0
0
0
0
0
0
0
0
0
0
0
0
0
0
0
0
0
0
0
0
0
0
0
0
0
0
0
0
0
0
0
0
0
0
0
0
0
0
0
0
0
0
0
0
0
0
0
0
0
0
0
0
0
0
0
0
0
0
0
0
0
0
0
0
0
0
0
0
0
0
0
0
0
0
0
0
0
0
0
0
0
0
0
0
0
0
0
0
0
0
0
0
0
0
0
0
0
0
0
0
0
0
0
0
0
0
0
0
0
0
0
0
0
0
0
0
0
0
0
0
0
0
0
0
0
0
0
0
0
0
0
0
0
0
0
0
0
0
0
0
0
0
0
0
0
0
0
0
0
0
0
0
0
0
0
0
0
0
0
0
0
0
0
0
0
0
0
0
0
0
0
0
0
0
0
0
0
0
0
0
0
0
0
0
0
0
0
0
0
0
0
0
0
0
0
0
0
0
0
0
0
0
0
0
0
0
0
0
0
0
0
0
0
0
0
0
0
0
0
0
0
0
0
0
0
0
0
0
0
0
0
0
0
0
0
0
0
0
0
0
0
0
0
0
0
0
0
0
0
0
0
0
0
0
0
0
0
0
0
0
0
0
0
0
0
0
0
0
0
0
0
0
0
0
0
0
0
0
0
0
0
0
0
0
0
0
0
0
0
0
0
0
0
0
0
0
0
0
0
0
0
0
0
0
0
0
0
0
0
0
0
0
0
0
0
0
0
0
0
0
0
0
0
0
0
0
0
0
0
0
0
0
0
0
0
0
0
0
0
0
0
0
0
0
0
0
0
0
0
0
0
0
0
0
0
0
0
0
0
0
0
0
0
0
0
0
0
0
0
0
0
0
0
0
0
0
0
0
0
0
0
0
0
0
0
0
0
0
0
0
0
0
0
0
0
0
0
0
0
0
0
0
0
0
0
0
0
0
0
0
0
0
0
0
0
0
0
0
0
0
0
0
0
0
0
0
0
0
0
0
0
0
0
0
0
0
0
0
0
0
0
0
0
0
0
0
0
0
0
0
0
0
0
0
0
0
0
0
0
0
0
0
0
0
0
0
0
0
0
0
0
0
0
0
0
0
0
0
0
0
0
0
0
0
0
0
0
0
0
0
0
0
0
0
0
0
0
0
0
0
0
0
0
0
0
0
0
0
0
0
0
0
0
0
0
0
0
0
0
0
0
0
0
0
0
0
0
0
0
0
0
0
0
0
0
0
0
0
0
0
0
0
0
0
0
0
0
0
0
0
0
0
0
0
0
0
0
0
0
0
0
0
0
0
0
0
0
0
0
0
0
0
0
0
0
0
0
0
0
0
0
0
0
0
0
0
0
0
0
0
0
0
0
0
0
0
0
0
0
0
0
0
0
0
0
0
0
0
0
0
0
0
0
0
0
0
0
0
0
0
0
0
0
0
0
0
0
0
0
0
0
0
0
0
0
0
0
0
0
0
0
0
0
0
0
0
0
0
0
0
0
0
0
0
0
0
0
0
0
0
0
0
0
0
0
0
0
0
0
0
0
0
0
0
0
0
0
0
0
0
0
0
0
0
0
0
0
0
0
0
0
0
0
0
0
0
0
0
0
0
0
0
0
0
0
0
0
0
0
0
0
0
0
0
0
0
0
0
0
0
0
0
0
0
0
0
0
0
0
0
0
0
0
0
0
0
0
0
0
0
0
0
0
0
0
0
0
0
0
0
0
0
0
0
0
0
0
0
0
0
0
0
0
0
0
0
0
0
0
0
0
0
0
0
0
0
0
0
0
0
0
0
0
0
0
0
0
0
0
0
0
0
0
0
0
0
0
0
0
0
0
0
0
0
0
0
0
0
0
0
0
0
0
0
0
0
0
0
0
0
0
0
0
0
0
0
0
0
0
0
0
0
0
0
0
0
0
0
0
0
0
0
0
0
0
0
0
0
0
0
0
0
0
0
0
0
0
0
0
0
0
0
0
0
0
0
0
0
0
0
0
0
0
0
0
0
0
0
0
0
0
0
0
0
0
0
0
0
0
0
0
0
0
0
0
0
0
0
0
0
0
0
0
0
0
0
0
0
0
0
0
0.999794272601
0.999865886471
0.999920492256
0.999959213036
0.999983669238
0.999996182586
0.999999932327
1
1
0.999928512497
0.999965531447
0.999988008391
0.999998296774
1
1
1
1
1
1
1
1
1
1
1
1
1
0.997803078619
0.998084539818
0.998341757412
0.998584373577
0.998807198166
0.999010284505
0.999193691915
0.999368144058
0.999511556389
0.999635617469
0.99974054161
0.999826626218
0.999894305455
0.999944215586
0.999977324137
0.999995128649
1
1
1
1
1
1
1
1
1
0.99782654072
0.998107589568
0.998368762644
0.99861006857
0.998831544726
0.99902861403
0.999211376095
0.999374449193
0.999517941857
0.99964197629
0.999751895551
0.999836820756
0.999903102116
0.999951307788
0.999982320198
0.999997540831
1
1
1
1
1
1
1
1
1
0.997842651292
0.998123413413
0.998384267711
0.998625216711
0.998846292592
0.999047532817
0.999228973721
0.999390687788
0.999541611247
0.99966374469
0.999766389268
0.999849745987
0.999914115836
0.999959962014
0.999988017587
0.99999949911
1
1
1
1
1
1
1
1
1
0.997866059577
0.998146400287
0.998406785507
0.998647210362
0.998867695424
0.999068266338
0.999248947433
0.999409777759
0.99955082547
0.999672174096
0.999773939049
0.999856302571
0.999922342393
0.999966234629
0.999991787367
0.999999999924
1
1
1
1
1
1
1
1
1
0.997868982229
0.998149269806
0.998409595802
0.998649954273
0.99887036371
0.999070849632
0.999251429235
0.999412151593
0.99956120946
0.99968200482
0.999783050055
0.999864469999
0.999926450964
0.999969290132
0.999993477328
1
1
1
1
1
1
1
1
1
0.997892353971
0.998172213884
0.998432062976
0.998671886933
0.998891694102
0.999091494851
0.999271289753
0.999431105073
0.999570962684
0.999690902078
0.999790984439
0.999871293493
0.999934260563
0.999974944111
0.999996282775
1
1
1
1
1
1
1
1
1
1
0.997882132004
0.998162179666
0.998422238162
0.998662296887
0.998882369034
0.999082465571
0.999262610529
0.999422821662
0.999563147004
0.999690750262
0.999790993859
0.999871433736
0.999932190565
0.999973466875
0.9999955955
1
1
1
1
1
0.997905485304
0.998185102064
0.998444679775
0.998684198998
0.998903661818
0.999103070533
0.999282415365
0.999441708951
0.9995809516
0.999700164928
0.999799371354
0.999878604102
0.999937928326
0.999978795625
0.999997878817
1
1
1
1
1
1
1
1
1
1
1
1
1
1
1
1
1
1
1
1
1
1
1
1
1
1
1
1
1
1
1
1
1
1
1
1
1
1
1
1
1
1
1
1
1
1
1
1
1
1
1
1
1
1
1
1
1
1
1
1
1
1
1
1
1
1
1
1
1
1
1
1
1
1
1
1
1
1
1
1
1
1
1
1
1
1
1
1
1
1
1
1
1
1
1
1
1
1
1
1
1
1
1
1
1
1
1
1
1
1
1
1
1
1
1
1
1
1
1
1
1
1
1
1
1
1
1
1
1
1
1
1
1
1
1
1
1
1
1
1
1
1
1
1
1
1
1
1
1
1
1
1
1
1
1
1
1
1
1
1
1
1
1
1
1
1
1
1
1
1
1
1
1
1
1
1
1
1
1
1
1
1
1
1
1
1
1
1
1
1
1
1
1
1
1
1
1
1
1
1
1
1
1
1
1
1
1
1
1
1
1
1
1
1
1
1
1
1
1
1
1
1
1
1
1
1
1
1
1
1
1
1
1
1
1
1
1
1
1
1
1
1
1
1
1
1
1
1
1
1
1
1
1
1
1
1
1
1
1
1
1
1
1
1
1
1
1
1
1
1
1
1
1
1
1
1
1
1
1
1
1
1
1
1
1
1
1
1
1
1
1
1
1
1
1
1
1
1
1
1
1
1
1
1
1
1
1
1
1
1
1
1
1
1
1
1
1
1
1
1
1
1
1
1
1
1
1
1
1
1
1
1
1
1
1
1
1
1
1
1
1
1
1
1
1
1
1
1
1
1
1
1
1
1
1
1
1
1
1
1
1
1
1
1
1
1
1
1
1
1
1
1
1
1
1
1
1
1
1
1
1
1
1
1
1
1
1
1
1
1
1
1
1
1
1
1
1
1
1
1
1
1
1
1
1
1
1
1
1
0.993259798534
0.993579611409
0.99388150237
0.994165589003
0.994431995233
0.994680850812
0.99491229061
0.995175616283
0.995381830166
0.995570989044
0.995743242608
0.995898740022
0.996037627796
0.996111647738
0.996231578655
0.996335209469
0.996422665953
0.996494058984
0.996549483458
0.996589015937
0.996612712647
0.996620607958
0.996612713437
0.996589017438
0.996549484324
0.993646493278
0.99396478872
0.994265143357
0.994547681148
0.994812533446
0.995059838545
0.995289741008
0.995559677477
0.995749048273
0.995936706315
0.996107513139
0.996261632738
0.996399227096
0.996520455071
0.996589270093
0.996691827344
0.996778344775
0.996848947523
0.996903743088
0.996942818461
0.996966237676
0.99697403994
0.996966238456
0.996942819945
0.996903745434
0.994014692671
0.994331414256
0.994630170371
0.994911091315
0.995174315966
0.99541999142
0.995648272377
0.995912533403
0.996108357426
0.99628331176
0.996452573537
0.996605218022
0.996741421402
0.996861360419
0.99692744631
0.997028840763
0.99711433832
0.997184080742
0.997238190315
0.99727676634
0.997299882106
0.997307582567
0.997299882876
0.997276767805
0.997238192632
0.994364496465
0.994679588932
0.994976684793
0.995255920542
0.995517442582
0.995761406972
0.995987978922
0.996246505286
0.996440634252
0.996610893808
0.996778504908
0.996929563968
0.997064269719
0.997182817602
0.997285395832
0.997346291518
0.997430678784
0.997499482092
0.997552841183
0.997590869974
0.9976136528
0.997621241498
0.997613653559
0.997590871418
0.997552843467
0.994696014437
0.995009424506
0.995304799638
0.995582282254
0.995842026137
0.996084196349
0.996308968876
0.996561702791
0.996754032989
0.996929530377
0.997085398435
0.997234757547
0.997367849035
0.997484891326
0.997586096283
0.99764423218
0.997727407671
0.997795182893
0.997847718301
0.997885145294
0.997907561488
0.997915027029
0.997907562235
0.997885146714
0.997847720436
0.995009366881
0.99532104423
0.9956146404
0.995890303301
0.996148193789
0.996388485801
0.996611367827
0.996858247327
0.997048669972
0.997222287937
0.99737336719
0.99752090082
0.997652250551
0.99776766087
0.997867370847
0.997951608145
0.998004577817
0.998071225466
0.998122853696
0.998159616373
0.998181627217
0.998188956486
0.99818162795
0.99815961637
0.998122854391
0.995304685018
0.99561458345
0.995906345858
0.996180125013
0.996436089956
0.996674419887
0.9968953141
0.997098985161
0.997324685683
0.99749630202
0.997642542752
0.997788115542
0.997917584325
0.998031224571
0.998129303728
0.998212083
0.998262257366
0.998327659739
0.998378285086
0.998414311417
0.998435872139
0.998443049946
0.998435872857
0.998414312783
0.998401843876
0.995582111286
0.995890190102
0.996180070458
0.996451905844
0.996705871117
0.996942156666
0.997160970551
0.997362538602
0.997582241077
0.997751727597
0.997904713934
0.99803654827
0.998163984501
0.998275700298
0.998371996524
0.998453173453
0.9985005307
0.998564557495
0.998614069306
0.998649275418
0.998670333194
0.998677341815
0.99867033951
0.998649281608
0.998637742624
0.995841801138
0.996148026706
0.996435978352
0.996705815772
0.996957716911
0.997191879141
0.997408520201
0.997607878784
0.99782152232
0.997988747403
0.998139493052
0.99826637219
0.998391611051
0.99850123002
0.998595574155
0.998674986226
0.998739789551
0.998781999454
0.998830271656
0.998864560477
0.998885060383
0.998891878643
0.998885060724
0.998864564858
0.998853958881
0.996083916327
0.996388263921
0.996674253685
0.996942046861
0.997191824757
0.997423790406
0.997638170073
0.997835215983
0.998042750052
0.998207573871
0.998355918726
0.99847778923
0.998600653845
0.998707989881
0.998800194099
0.99887765679
0.998940756229
0.99898010135
0.99902698253
0.999060244276
0.999080103517
0.999086707093
0.999080103847
0.99906024474
0.999050569479
0.9963086345
0.996611090274
0.996895094124
0.997160807198
0.997408412436
0.997638116783
0.997850154892
0.998044789561
0.998222303511
0.998408448608
0.998554239307
0.998683916923
0.998791347233
0.998896198525
0.998986050866
0.999061355177
0.999122555343
0.999159000711
0.999204322256
0.999236413518
0.999255551275
0.999261910679
0.999255550063
0.999250036006
0.999227670416
0.996516141838
0.996816705028
0.997098712242
0.997362322627
0.997607718668
0.997835110546
0.998044737897
0.998236861455
0.998411792333
0.998591659034
0.998734738239
0.998861694188
0.998963972298
0.999066122909
0.999153388718
0.999226299314
0.999285371985
0.999331093738
0.999362435912
0.999393198723
0.999411511205
0.999417590882
0.999411514861
0.999406798288
0.99938538944
0.996706633576
0.997005318825
0.997285334728
0.997546837855
0.997790004674
0.998015049821
0.998222201484
0.998411742109
0.998583983395
0.998757539528
0.998897750521
0.999021803478
0.999130190195
0.999218080694
0.999302507606
0.999372757786
0.999429442639
0.999473148556
0.999501526203
0.999530767977
0.999548131214
0.999553890772
0.999548133002
0.999544194418
0.999523885965
0.996880312371
0.997177152105
0.997455202511
0.997714609012
0.997955547234
0.998178226079
0.998382873556
0.998569770724
0.998739237428
0.99889164762
0.999043671655
0.999164632345
0.999269900922
0.999352478799
0.999433789733
0.999501084296
0.999555082271
0.99959649296
0.999621861073
0.999649348215
0.999665612988
0.999670992972
0.999665611152
0.999662424576
0.999643394121
0.993297557998
0.993626857916
0.993938159057
0.994231578355
0.994507240258
0.994765275854
0.995005822428
0.99522902267
0.995435023768
0.995623975599
0.995796029876
0.995951337772
0.996090048004
0.996212303955
0.996281557936
0.996385047127
0.99647237987
0.996543668862
0.996599010608
0.996638482995
0.99666214324
0.996670026327
0.996662144028
0.996638484573
0.996599012978
0.993677053429
0.994004806005
0.994314534079
0.994606360632
0.994880416874
0.995136841955
0.995375782463
0.995597391797
0.995801828634
0.995989256312
0.996159840629
0.996313748026
0.996451142691
0.996572184547
0.996638736761
0.996741133818
0.996827510819
0.996897995233
0.996952696527
0.996991703325
0.997015080887
0.997022869181
0.997015081554
0.996991704772
0.996952698757
0.994110663647
0.9943642649
0.994672359509
0.994962526435
0.995234903738
0.995489638745
0.995726887769
0.995946814943
0.996149591943
0.996335396242
0.996504408952
0.996656813309
0.99679279162
0.996912521801
0.997016174608
0.997077570531
0.997162908117
0.997232515301
0.99728651691
0.997325014271
0.997348082203
0.997355766501
0.997348082861
0.997325015699
0.997286519111
0.994456261919
0.994773053191
0.99501174132
0.995300181997
0.995570806538
0.995823770196
0.996059239079
0.99627738922
0.996478405288
0.996662479952
0.996829811652
0.996980601852
0.997115052892
0.997233363531
0.997335725733
0.997394394067
0.997478597965
0.997547245915
0.99760048068
0.997638418716
0.997661146286
0.997668716428
0.997661147043
0.997638420123
0.997600482849
0.994779640194
0.995090015372
0.995395684769
0.995674764978
0.995888243933
0.996139353949
0.996372952207
0.996589226224
0.996788375144
0.99697060749
0.997136140249
0.997285195509
0.997417997576
0.99753476935
0.997635726864
0.997691650644
0.997774614998
0.99784221074
0.997894602119
0.99793192375
0.9979542757
0.997961719651
0.997954276445
0.997931925134
0.997894604254
0.995093568308
0.995402182263
0.995692731974
0.995978525727
0.996237935116
0.996436523616
0.9966681589
0.996882454952
0.997079625394
0.997259896014
0.997423503439
0.997570692294
0.997701712179
0.997816812546
0.99791623781
0.998000220966
0.998051003899
0.998117441519
0.998168901804
0.998205541317
0.998227476933
0.998234780899
0.998227477663
0.998205542675
0.998168903795
0.995360201437
0.995696242419
0.995984925428
0.996255644022
0.996521551445
0.996761310136
0.996945009178
0.997157223246
0.997352299799
0.997530482655
0.997692029684
0.997837210238
0.997966301475
0.998079583487
0.998177333188
0.998259817057
0.998307821873
0.998372980138
0.998423408234
0.998459289487
0.998480761419
0.998487909331
0.998480762032
0.998459296912
0.9984234163
0.995637314205
0.995945011917
0.996259106819
0.99652784326
0.996778730717
0.99702474538
0.997244884533
0.997447732205
0.997606564445
0.99778252793
0.997941871174
0.998084889944
0.99821189241
0.998323192994
0.998419106237
0.998499937951
0.998565975009
0.998608881203
0.998658159976
0.998693194115
0.998714152463
0.998721125342
0.998714153061
0.998693200913
0.998680160075
0.995896683804
0.996202497117
0.996490019009
0.996759409392
0.997030917817
0.997261980525
0.997488101788
0.997688665507
0.99787215575
0.998016219381
0.998173207482
0.99831390331
0.99843864162
0.998547779701
0.998641675241
0.998720680134
0.998785128429
0.998825216975
0.998873209139
0.998907296457
0.998927663786
0.998934439477
0.998927664366
0.998907296942
0.998895238047
0.996138476746
0.996442379081
0.996727902183
0.996995207679
0.997244477307
0.997494141103
0.997705393985
0.997911628427
0.998092677594
0.998256915709
0.998386254607
0.99852444516
0.998646729936
0.998753505942
0.998845180475
0.998922160059
0.998984835339
0.999022076412
0.999068626201
0.999101632985
0.999121337734
0.999127889067
0.999121337967
0.999101633294
0.999090563913
0.99636287104
0.996664846436
0.99694834445
0.997213526033
0.997460574221
0.997689696491
0.997917517768
0.998108986079
0.998295353642
0.998456971118
0.998602083424
0.99871676
0.99883638673
0.998940580424
0.999029805487
0.999104532062
0.9991652197
0.999212299672
0.999244492004
0.999276275431
0.999295223098
0.999301517994
0.999295227332
0.999288362232
0.999266208248
0.996570054879
0.996870101016
0.997151561106
0.997414593254
0.997659379533
0.997886128478
0.998095083705
0.998286506131
0.998472795649
0.998639315601
0.998781614788
0.998907784751
0.999007886994
0.999109258115
0.999195777697
0.999267992751
0.999326445691
0.999371643586
0.999400930738
0.999431312178
0.999449388138
0.999455390761
0.999449391788
0.999443397192
0.999422252167
0.99676022639
0.997058356503
0.997337781901
0.997598655912
0.997841156653
0.998065490899
0.998271903115
0.998460658802
0.99863208045
0.998796874917
0.998943597206
0.999066732566
0.999161568035
0.999259856789
0.999343386286
0.999412789117
0.999468710951
0.999511764797
0.99953810274
0.999566867475
0.999583930042
0.99958958422
0.999583932836
0.999578798857
0.999558825383
0.996933591003
0.997229836618
0.997507250008
0.99776597725
0.998006189939
0.998228094755
0.998431916945
0.998617938657
0.998786482274
0.998937922181
0.999081329814
0.999208324744
0.99931250895
0.999392763337
0.999472993027
0.999539248412
0.999592297212
0.999632887462
0.999656222911
0.999683099363
0.999698973395
0.999704223604
0.999698975388
0.999694690834
0.999676091475
0.99333770021
0.993666842507
0.993977983521
0.99427124104
0.994546740099
0.994804612696
0.995044996892
0.995268036534
0.995473879877
0.995662678353
0.995834584961
0.995989752453
0.996128330816
0.99625046534
0.996317473546
0.996420859378
0.996508101785
0.996579314806
0.99663459613
0.996674024621
0.996697658226
0.996705532305
0.996697658937
0.996674026121
0.996634598421
0.993717012851
0.994044594702
0.994354148921
0.994645799109
0.994919677306
0.995175923371
0.995414685007
0.995636116665
0.9958403786
0.996027635504
0.996198054876
0.996351804606
0.99648905103
0.996609955826
0.996674278103
0.996776557916
0.996862832275
0.996933230173
0.996987862526
0.997026819167
0.997050166259
0.997057944332
0.997050167037
0.997026820649
0.99698786479
0.994152207717
0.99440385059
0.994711756337
0.995001730912
0.995273913231
0.99552845155
0.995765503163
0.995985233734
0.99618781638
0.996373429957
0.996542257752
0.996694484894
0.996830295718
0.996949870687
0.997053382537
0.997112572976
0.997197793286
0.997267301455
0.997321223995
0.997359663733
0.997382696545
0.997390369192
0.997382697313
0.997359665195
0.997321226229
0.994490226546
0.994814179989
0.995112729843
0.995339142478
0.995609553342
0.995862300706
0.996097551812
0.996315483801
0.996516283303
0.996700144742
0.99686726864
0.997017858869
0.997152120144
0.997270254117
0.997372455445
0.997428936886
0.997513006371
0.997581540392
0.997634683952
0.997672555395
0.997695242337
0.99770279886
0.997695243093
0.997672556835
0.997634686194
0.994822117943
0.995132263638
0.995436346351
0.995715189177
0.995926716549
0.99617758853
0.996410945826
0.996626977692
0.996825884905
0.997007878163
0.99717317679
0.997322005542
0.997454591896
0.997571161786
0.997671934626
0.997757118464
0.997808500709
0.997875964589
0.997928250108
0.997965494272
0.997987798976
0.997995227048
0.997987799647
0.997965495688
0.997928252385
0.9951358137
0.995444178651
0.995734472059
0.996018666844
0.996277810481
0.996519313525
0.99670581683
0.996919843571
0.9971167438
0.997296745594
0.997460088472
0.997607020228
0.99773779366
0.997852662236
0.997951874482
0.99803566746
0.99808431477
0.998150598794
0.998201935361
0.998238484107
0.998260364267
0.998267649578
0.998260364926
0.998238485569
0.998201937525
0.99543144637
0.995737979135
0.996026382859
0.996296813927
0.996561106834
0.996800566798
0.997022544468
0.99719422867
0.997389002545
0.997566882681
0.997728129943
0.997873017214
0.998001825937
0.998114840711
0.998212343308
0.998294605475
0.998340498341
0.998405476432
0.998455758845
0.998491532893
0.998512939192
0.998520070992
0.9985129459
0.998491540332
0.998455767099
0.995709160141
0.996013814776
0.996300272738
0.996568694394
0.996819257303
0.997052156782
0.997283439363
0.997485943092
0.997642826504
0.997818448269
0.997977450771
0.998120134132
0.998246811141
0.998357801945
0.998453427028
0.998533998422
0.998599809829
0.998640641932
0.998689747617
0.998724659587
0.998745533932
0.998752480407
0.998745534492
0.998724660848
0.998710113423
0.995969111264
0.996271848693
0.996556311042
0.996822661624
0.997071082791
0.997301777051
0.997514968406
0.997726419007
0.997909517855
0.998051628476
0.998208228367
0.998348535739
0.998472898094
0.998581677978
0.998675235159
0.998753932499
0.99881811245
0.998856158901
0.998903944036
0.998937872755
0.998958146127
0.998964889796
0.998958146671
0.998937874048
0.99892435946
0.996211468351
0.996512258088
0.996794683265
0.997058908613
0.997305119552
0.997533524383
0.997744355883
0.99793787268
0.998129508656
0.998293294552
0.998420676364
0.998558423395
0.998680270778
0.998786623642
0.998877898457
0.998954511709
0.999016869651
0.999052094614
0.999098388683
0.999131207713
0.999150797153
0.999157309652
0.999150797679
0.999131213421
0.999118746702
0.996436411663
0.996735234135
0.997015591271
0.997277647183
0.997521588574
0.997747627535
0.997956003527
0.998146986222
0.998320880837
0.998492730794
0.998637325255
0.998750028098
0.998869144509
0.998972839719
0.999061589062
0.999135875691
0.999196177291
0.999242926896
0.999273153097
0.999304705944
0.999323510209
0.999329761016
0.999323514722
0.999304710486
0.999293309385
0.996644132496
0.996940981594
0.997219253307
0.997479108861
0.997720733935
0.997944341759
0.998150176113
0.998338519428
0.998509676987
0.998664008153
0.99881611694
0.99894168343
0.999039791982
0.999140572371
0.999226521814
0.999298205952
0.999356177509
0.999400972779
0.999428330044
0.999458426845
0.999476323018
0.999482260906
0.999476323085
0.999469064822
0.999448116805
0.996834832579
0.997129718017
0.997405903045
0.997663544068
0.997902822659
0.998123949956
0.998327175516
0.998512772043
0.998681069782
0.998832440755
0.998967306757
0.999099740717
0.999206499518
0.999290130668
0.999372971997
0.99944172613
0.999497052824
0.999539601927
0.999564047251
0.999592443034
0.999609276301
0.999614855138
0.999609279386
0.999602970559
0.999583248619
0.997008722206
0.997301671903
0.997575788921
0.99783122155
0.998068144342
0.998286768061
0.998487323024
0.998670097938
0.998835423514
0.998983684523
0.999115325956
0.999230860016
0.999343716989
0.999431970541
0.999501287859
0.999566738331
0.999619042654
0.999658994263
0.999687318504
0.999706873709
0.999722447672
0.999727595367
0.999722450163
0.999717094642
0.999698822909
0.993363072356
0.993692114318
0.994003153453
0.994296307933
0.994571703245
0.994829471828
0.995069752517
0.995292689755
0.995498432557
0.995687133191
0.995858945603
0.99601402333
0.996152517567
0.996274574535
0.996339365418
0.996442687543
0.996529874294
0.996601040503
0.996656284589
0.996695686024
0.996719303208
0.996727171858
0.996719303955
0.996695687638
0.996656287034
0.993742268717
0.994069741855
0.994379185337
0.994670723154
0.994944487734
0.99520061967
0.995439267228
0.995660585614
0.995864735975
0.996051883858
0.996222197759
0.996375846846
0.996512998542
0.99663381573
0.996738453669
0.996798146976
0.996884358046
0.996954702547
0.997009292376
0.997048218073
0.997071546366
0.997079318133
0.997071547144
0.997048219668
0.997009294791
0.99417912997
0.994497262787
0.994736653699
0.995026505671
0.995298563664
0.995552976526
0.995789902298
0.996009507371
0.996211965772
0.996397457588
0.99656616721
0.996718281058
0.996853984841
0.996973460379
0.99707688202
0.997133901831
0.99721904983
0.997288496875
0.997342370593
0.997380774707
0.99740378595
0.997411451331
0.997403786716
0.997380776319
0.997342372937
0.99451837722
0.994840829365
0.99513923987
0.995363761654
0.995634036333
0.995886645663
0.996121757592
0.99633955032
0.996540211434
0.996723936561
0.996890927494
0.997041389815
0.997175529689
0.997293550525
0.997395648659
0.997449982016
0.997533968456
0.997602432029
0.99765551921
0.997693349479
0.997716011418
0.997723559481
0.997716012135
0.997693351028
0.997655521558
0.994850118636
0.995160111603
0.995462691556
0.995741379003
0.996002286429
0.9962017444
0.996434947836
0.996650824975
0.996849577562
0.997031417849
0.99719656654
0.997345250291
0.997477698416
0.997594138861
0.99769479325
0.99777987174
0.99782913962
0.997896521904
0.997948741897
0.9979859381
0.998008213511
0.998015631748
0.998008214253
0.997985939586
0.997948744281
0.99516365984
0.995471858842
0.995761981515
0.99603417964
0.99630364073
0.996544966336
0.996729604247
0.996943458729
0.997140186009
0.997320015723
0.997483189026
0.997629955807
0.997760571242
0.997875291095
0.997974366465
0.998058037231
0.998104597812
0.998170786612
0.998222046482
0.998258538942
0.99828038467
0.998287658409
0.998280385398
0.998258547038
0.998222055404
0.99545913371
0.995765486432
0.996053704067
0.996323943238
0.996576376124
0.996825991268
0.997047769193
0.99721759848
0.997412178585
0.997589864611
0.997750919519
0.997895618631
0.998024245806
0.998137088726
0.998234432431
0.998316551875
0.998383703174
0.998425254179
0.998475446113
0.998511159587
0.998532525087
0.998539637119
0.998532525763
0.998511161084
0.99847545456
0.995736685066
0.996041144379
0.996327399475
0.996595611129
0.996845957254
0.997078634108
0.997308402941
0.997510680444
0.997665719935
0.997841122391
0.997999906059
0.998142373795
0.998268841423
0.998379632692
0.998475072052
0.998555475686
0.998621141399
0.998659968069
0.998708966023
0.998743792846
0.998764618323
0.998771548363
0.998764618947
0.998743794341
0.998727728906
0.995996470819
0.996298996447
0.996583237851
0.996849358477
0.997097541079
0.997327988856
0.997540926946
0.997750855288
0.997933696319
0.998073974044
0.99823032431
0.998370383776
0.998494503507
0.9986030479
0.998696386992
0.998774885895
0.998838897729
0.998874966947
0.998922622626
0.998956455392
0.998976669657
0.998983393395
0.998976670263
0.998956456877
0.99894147407
0.996238660128
0.996539220631
0.996821405411
0.997085379111
0.997331327552
0.99755945953