/*--------------------------------*- C++ -*----------------------------------*\
| =========                 |                                                 |
| \\      /  F ield         | OpenFOAM: The Open Source CFD Toolbox           |
|  \\    /   O peration     | Version:  2406                                  |
|   \\  /    A nd           | Website:  www.openfoam.com                      |
|    \\/     M anipulation  |                                                 |
\*---------------------------------------------------------------------------*/
FoamFile
{
    version     2.0;
    format      ascii;
    arch        "LSB;label=32;scalar=64";
    class       volScalarField;
    location    "0.01";
    object      k;
}
// * * * * * * * * * * * * * * * * * * * * * * * * * * * * * * * * * * * * * //

dimensions      [0 2 -2 0 0 0 0];

internalField   nonuniform List<scalar> 
29768
(
0.24
0.24
0.239003358768
0.239938168764
0.239956971776
0.239957759806
0.239957787287
0.239957787999
0.239957788002
0.239957787868
0.239957782915
0.23995763293
0.239954201347
0.239879307369
0.237418131436
0.24
0.239769736178
0.239935053268
0.239956380404
0.239957703806
0.239957764147
0.239957766071
0.239957766109
0.239957766099
0.239957765968
0.239957761009
0.239957610899
0.239954177723
0.239879276175
0.237418111528
0.229765964944
0.239904929947
0.239955507029
0.239957660402
0.239957761549
0.239957765158
0.239957765244
0.239957765238
0.239957765232
0.2399577651
0.239957760142
0.23995761003
0.239954176863
0.239879275645
0.237418111508
0.239900547437
0.239954726348
0.239957613002
0.23995775942
0.239957765063
0.239957765219
0.239957765215
0.239957765208
0.239957765203
0.239957765072
0.239957760114
0.239957610003
0.239954176842
0.239879276266
0.237418111492
0.2399557912
0.239957625956
0.239957758677
0.239957765008
0.239957765216
0.239957765213
0.23995776521
0.239957765204
0.239957765201
0.239957765069
0.239957760112
0.239957610001
0.23995417684
0.23987927617
0.237418111493
0.239957724401
0.239957761691
0.239957765057
0.239957765216
0.239957765213
0.239957765212
0.239957765207
0.239957765204
0.239957765201
0.23995776507
0.239957760111
0.239957609998
0.239954176843
0.239879276267
0.237418111524
0.239957786535
0.239957766011
0.239957765239
0.239957765212
0.23995776521
0.239957765207
0.239957765205
0.239957765203
0.2399577652
0.239957765069
0.239957760108
0.239957609997
0.239954176839
0.239879276307
0.2374181115
0.239957787984
0.239957766108
0.23995776524
0.239957765209
0.239957765205
0.239957765204
0.239957765203
0.239957765201
0.239957765198
0.239957765065
0.239957760106
0.239957609997
0.239954176839
0.239879276337
0.23741811152
0.239957788004
0.239957766101
0.239957765232
0.239957765203
0.239957765201
0.239957765201
0.2399577652
0.239957765198
0.239957765192
0.239957765062
0.239957760105
0.239957609995
0.239954176837
0.239879276281
0.237418111511
0.23995778787
0.239957765968
0.239957765101
0.239957765072
0.23995776507
0.23995776507
0.239957765069
0.239957765065
0.239957765062
0.239957764933
0.239957759975
0.239957609867
0.239954176735
0.239879276197
0.237418088682
0.239957782917
0.239957761009
0.239957760141
0.239957760114
0.239957760112
0.239957760112
0.239957760107
0.239957760106
0.239957760105
0.239957759975
0.239957755021
0.239957604976
0.239954172679
0.239879275755
0.237418087583
0.239957632931
0.239957610899
0.239957610031
0.239957610003
0.239957610002
0.239957610002
0.239957609997
0.239957609997
0.239957609995
0.239957609867
0.239957604976
0.239957456335
0.239954043284
0.239879252275
0.237418108623
0.239954201346
0.23995417772
0.239954176862
0.239954176835
0.239954176838
0.239954176838
0.239954176838
0.239954176834
0.239954176838
0.239954176737
0.23995417268
0.23995404328
0.239950904376
0.239878140656
0.237417904344
0.239879307326
0.239879276042
0.239879275507
0.239879275469
0.239879275662
0.239879275714
0.239879276213
0.239879275673
0.239879276342
0.239879276369
0.239879275906
0.239879251883
0.239878140686
0.239832387859
0.237410267012
0.237418125922
0.237418088173
0.23741808816
0.237418088168
0.237418111535
0.237418111518
0.237418111518
0.237418111532
0.237418111531
0.237418111427
0.237418087726
0.237418108078
0.23741790434
0.237410266922
0.237387255248
0.24
0.24
0.239674916088
0.239952404037
0.239957538224
0.239957770134
0.239957777867
0.239957778041
0.239957778041
0.239957777905
0.239957772949
0.239957622904
0.239954190447
0.239879288053
0.23741788672
0.24
0.23966037457
0.239949344962
0.239957258112
0.239957734766
0.239957755799
0.239957756142
0.239957756145
0.23995775614
0.239957756008
0.239957751047
0.239957600876
0.239954166831
0.239879257464
0.237417866661
0.239471643934
0.239948942929
0.239957138088
0.239957722589
0.239957754469
0.239957755268
0.239957755282
0.239957755277
0.239957755271
0.239957755141
0.23995775018
0.239957600009
0.239954165972
0.239879256975
0.23741786665
0.239951402106
0.239957242815
0.239957722554
0.239957754189
0.239957755232
0.239957755258
0.239957755252
0.239957755254
0.239957755244
0.239957755113
0.239957750152
0.239957599981
0.239954165947
0.239879256979
0.237417866665
0.239957521645
0.239957734993
0.239957754483
0.239957755232
0.239957755255
0.239957755251
0.23995775525
0.239957755246
0.239957755241
0.239957755111
0.239957750151
0.23995759998
0.239954165946
0.239879256986
0.237417866676
0.239957770177
0.239957755807
0.239957755269
0.239957755258
0.239957755251
0.239957755251
0.239957755254
0.239957755245
0.239957755241
0.239957755112
0.239957750152
0.23995759998
0.239954165948
0.239879256998
0.237417866694
0.239957777888
0.239957756143
0.239957755282
0.239957755252
0.23995775525
0.239957755254
0.239957755246
0.239957755244
0.239957755241
0.239957755112
0.239957750151
0.23995759998
0.239954165948
0.239879257005
0.237417866707
0.239957778043
0.239957756146
0.239957755278
0.239957755255
0.239957755251
0.239957755246
0.239957755244
0.239957755243
0.239957755241
0.239957755111
0.239957750151
0.23995759998
0.239954165948
0.239879257014
0.237417866722
0.239957778044
0.239957756146
0.239957755273
0.239957755244
0.239957755242
0.239957755242
0.239957755241
0.239957755241
0.239957755238
0.239957755109
0.239957750149
0.239957599978
0.239954165947
0.239879257023
0.237417866736
0.239957777907
0.239957756009
0.239957755141
0.239957755113
0.239957755111
0.239957755112
0.239957755112
0.239957755111
0.239957755109
0.23995775498
0.23995775002
0.239957599851
0.239954165847
0.239879257028
0.237417866505
0.23995777295
0.239957751047
0.23995775018
0.239957750153
0.239957750151
0.239957750152
0.239957750152
0.239957750151
0.239957750149
0.23995775002
0.239957745062
0.239957594956
0.23995416179
0.239879256585
0.237417866425
0.239957622905
0.239957600877
0.239957600009
0.239957599981
0.23995759998
0.239957599981
0.23995759998
0.23995759998
0.239957599978
0.239957599851
0.239957594956
0.239957446255
0.239954032342
0.239879232653
0.237417863588
0.239954190448
0.239954166832
0.239954165973
0.239954165947
0.239954165947
0.239954165948
0.239954165948
0.239954165948
0.239954165947
0.239954165846
0.239954161789
0.239954032341
0.239950892726
0.239878121318
0.237417683003
0.239879288062
0.23987925747
0.239879256979
0.23987925698
0.239879256988
0.239879256997
0.239879257005
0.239879257011
0.239879257018
0.239879257013
0.239879256577
0.239879232641
0.239878121306
0.239832364101
0.237410044512
0.237417886748
0.237417866644
0.237417866616
0.237417866619
0.237417866742
0.237417866747
0.237417866747
0.237417866753
0.237417866757
0.23741786665
0.237417866445
0.23741786359
0.237417683002
0.237410044512
0.237387005872
0.24
0.239526875706
0.239948212448
0.239957267076
0.239957757284
0.239957777055
0.23995777784
0.239957777839
0.239957777835
0.239957777701
0.239957772746
0.239957622697
0.239954190228
0.239879287743
0.237417883571
0.23969540374
0.239946753376
0.23995691909
0.239957711557
0.239957753947
0.239957756048
0.239957755952
0.239957755946
0.23995775594
0.239957755807
0.239957750846
0.239957600674
0.239954166617
0.239879257158
0.237417863518
0.239950633021
0.239957022686
0.239957702853
0.239957752245
0.239957755146
0.239957755095
0.239957755086
0.239957755077
0.239957755072
0.23995775494
0.239957749979
0.239957599806
0.239954165758
0.23987925667
0.237417863524
0.239957411954
0.239957720321
0.239957752451
0.239957755051
0.239957755063
0.239957755061
0.239957755052
0.239957755048
0.239957755043
0.239957754912
0.239957749951
0.239957599779
0.239954165733
0.239879256675
0.237417863572
0.239957764227
0.239957754337
0.239957755162
0.239957755063
0.239957755059
0.239957755052
0.23995775505
0.239957755046
0.239957755041
0.239957754911
0.23995774995
0.239957599777
0.239954165732
0.239879256685
0.237417863608
0.239957777096
0.239957756062
0.239957755096
0.239957755063
0.239957755051
0.239957755051
0.239957755046
0.239957755044
0.239957755041
0.239957754911
0.23995774995
0.239957599778
0.239954165733
0.239879256696
0.237417863659
0.239957777848
0.239957755953
0.239957755085
0.239957755053
0.239957755049
0.239957755047
0.239957755045
0.239957755043
0.23995775504
0.239957754911
0.23995774995
0.239957599778
0.239954165734
0.239879256706
0.237417863697
0.239957777841
0.239957755947
0.239957755079
0.239957755057
0.239957755045
0.239957755045
0.239957755043
0.239957755042
0.23995775504
0.23995775491
0.23995774995
0.239957599777
0.239954165734
0.239879256717
0.237417863741
0.239957777839
0.23995775594
0.239957755074
0.239957755044
0.239957755041
0.239957755041
0.239957755041
0.23995775504
0.239957755037
0.239957754908
0.239957749948
0.239957599775
0.239954165733
0.239879256725
0.237417863778
0.239957777702
0.239957755808
0.239957754941
0.239957754913
0.239957754911
0.239957754911
0.239957754911
0.23995775491
0.239957754908
0.239957754778
0.239957749818
0.239957599648
0.239954165633
0.23987925675
0.23741786433
0.239957772747
0.239957750847
0.23995774998
0.239957749952
0.23995774995
0.239957749951
0.239957749951
0.23995774995
0.239957749948
0.239957749818
0.239957744861
0.239957594752
0.239954161572
0.23987925631
0.237417864208
0.239957622697
0.239957600674
0.239957599807
0.239957599779
0.239957599778
0.239957599778
0.239957599778
0.239957599777
0.239957599775
0.239957599648
0.239957594752
0.239957446045
0.239954032121
0.239879232378
0.237417861377
0.239954190229
0.239954166617
0.239954165758
0.239954165733
0.239954165732
0.239954165734
0.239954165734
0.239954165734
0.239954165733
0.239954165632
0.239954161571
0.23995403212
0.239950892497
0.239878121037
0.237417680869
0.239879287763
0.239879257161
0.239879256671
0.239879256675
0.239879256685
0.239879256695
0.239879256706
0.239879256716
0.239879256725
0.239879256738
0.239879256298
0.23987923236
0.239878121031
0.239832363768
0.237410041917
0.23741788443
0.237417863696
0.237417863677
0.237417863701
0.237417863714
0.237417863742
0.237417863762
0.237417863789
0.237417863812
0.237417864384
0.237417864266
0.237417861301
0.237417680878
0.237410041919
0.237387003683
0.239836230964
0.239951032231
0.239957310069
0.239957754674
0.23995777657
0.239957777611
0.2399577785
0.239957778529
0.239957778513
0.239957778389
0.239957773435
0.239957623389
0.239954191049
0.239879290447
0.23741792466
0.239952884012
0.239957213801
0.239957717944
0.239957753682
0.239957755586
0.239957756382
0.239957756632
0.239957756631
0.239957756623
0.239957756495
0.239957751535
0.23995760137
0.239954167439
0.239879259844
0.237417904596
0.239957482392
0.239957724796
0.23995775259
0.239957754638
0.239957755192
0.23995775576
0.239957755764
0.239957755762
0.23995775576
0.239957755629
0.239957750668
0.239957600503
0.239954166581
0.239879259383
0.237417904634
0.239957764721
0.239957754142
0.239957754645
0.239957755052
0.239957755728
0.239957755739
0.239957755734
0.239957755718
0.239957755729
0.239957755601
0.23995775064
0.239957600475
0.239954166555
0.239879259362
0.237417904668
0.239957776928
0.239957755613
0.239957755206
0.239957755728
0.23995775574
0.239957755735
0.239957755732
0.239957755728
0.239957755729
0.239957755599
0.239957750639
0.239957600474
0.239954166555
0.239879259399
0.237417904742
0.239957777626
0.239957756403
0.23995775576
0.23995775574
0.239957755736
0.239957755731
0.239957755716
0.23995775573
0.239957755729
0.2399577556
0.23995775064
0.239957600475
0.239954166556
0.239879259406
0.237417904806
0.239957778506
0.239957756633
0.239957755766
0.239957755736
0.239957755731
0.239957755716
0.239957755729
0.239957755731
0.239957755729
0.2399577556
0.23995775064
0.239957600475
0.239954166557
0.239879259425
0.237417904869
0.239957778532
0.23995775663
0.239957755764
0.239957755735
0.239957755717
0.239957755728
0.239957755731
0.239957755731
0.239957755728
0.239957755599
0.239957750639
0.239957600474
0.239954166558
0.239879259433
0.237417904934
0.239957778518
0.239957756609
0.239957755756
0.239957755731
0.239957755727
0.239957755729
0.239957755729
0.239957755728
0.239957755726
0.239957755597
0.239957750637
0.239957600473
0.23995416656
0.239879259424
0.23741790499
0.239957778386
0.239957756494
0.239957755629
0.239957755601
0.239957755599
0.2399577556
0.2399577556
0.239957755599
0.239957755597
0.239957755467
0.239957750508
0.23995760035
0.239954166451
0.239879259407
0.237417905907
0.239957773435
0.239957751535
0.239957750669
0.239957750641
0.239957750639
0.23995775064
0.23995775064
0.239957750639
0.239957750637
0.239957750508
0.239957745555
0.239957595446
0.239954162383
0.239879259015
0.237417905915
0.23995762339
0.23995760137
0.239957600503
0.239957600476
0.239957600474
0.239957600475
0.239957600475
0.239957600474
0.239957600473
0.23995760035
0.239957595446
0.239957446739
0.239954032941
0.239879235089
0.237417903252
0.239954191049
0.239954167441
0.239954166582
0.239954166557
0.239954166556
0.239954166556
0.239954166557
0.239954166557
0.239954166561
0.239954166453
0.239954162377
0.239954032941
0.239950893429
0.239878123757
0.237417722795
0.239879290468
0.239879259886
0.239879259393
0.239879259401
0.239879259403
0.239879259407
0.239879259419
0.239879259428
0.239879259418
0.239879259462
0.239879259007
0.23987923508
0.239878123792
0.239832367642
0.237410083582
0.237417926156
0.237417904727
0.237417904731
0.237417904773
0.237417904877
0.237417904929
0.237417904978
0.237417905031
0.237417905064
0.237417905944
0.237417905938
0.237417903157
0.237417722826
0.237410083583
0.237387046433
0.239956115195
0.239957596754
0.239957765154
0.239957776693
0.239957777396
0.23995777776
0.239957777878
0.239957778073
0.239957778445
0.239957777733
0.239957772755
0.239957622712
0.239954190305
0.239879290292
0.237417896379
0.239957639557
0.239957742113
0.239957754484
0.239957755429
0.239957755778
0.239957756443
0.239957755978
0.239957755988
0.23995775597
0.239957755812
0.23995775085
0.23995760068
0.239954166646
0.239879257519
0.237417876304
0.239957770085
0.23995775467
0.239957754553
0.239957754853
0.239957755274
0.23995775513
0.239957755106
0.239957755506
0.239957755102
0.239957754945
0.239957749983
0.239957599812
0.239954165782
0.239879257012
0.237417876331
0.23995777699
0.239957755423
0.239957754856
0.23995775516
0.239957755257
0.239957755073
0.239957755076
0.239957755651
0.239957755071
0.239957754917
0.239957749956
0.239957599784
0.23995416576
0.239879257005
0.237417876392
0.239957777404
0.239957755795
0.239957755301
0.239957755264
0.239957755084
0.239957755057
0.239957755074
0.239957755074
0.239957755046
0.239957754914
0.239957749954
0.239957599783
0.239954165755
0.239879257011
0.237417876459
0.239957777775
0.239957756453
0.23995775513
0.239957755073
0.239957755057
0.239957755094
0.239957755629
0.239957755071
0.239957755045
0.239957754915
0.239957749955
0.239957599783
0.239954165755
0.239879257005
0.237417876527
0.239957778094
0.239957755994
0.239957755086
0.239957755056
0.239957755092
0.239957755631
0.239957755094
0.239957755049
0.239957755044
0.239957754915
0.239957749955
0.239957599784
0.239954165756
0.239879257016
0.237417876598
0.239957778069
0.239957755985
0.239957755084
0.239957755073
0.239957755629
0.239957755094
0.239957755049
0.239957755046
0.239957755043
0.239957754914
0.239957749954
0.239957599787
0.239954165773
0.23987925704
0.237417876678
0.23995777841
0.239957756545
0.2399577551
0.239957755049
0.239957755068
0.239957755047
0.239957755044
0.239957755044
0.239957755041
0.239957754912
0.239957749957
0.239957599816
0.239954166001
0.239879257052
0.237417876725
0.239957777738
0.239957755836
0.239957754946
0.239957754916
0.239957754915
0.239957754915
0.239957754915
0.239957754914
0.239957754912
0.239957754785
0.239957749857
0.239957599887
0.239954165867
0.239879256838
0.237417863149
0.239957772756
0.239957750851
0.239957749984
0.239957749956
0.239957749954
0.239957749955
0.239957749955
0.239957749954
0.239957749955
0.239957749857
0.239957745084
0.239957594794
0.239954161603
0.239879256372
0.237417863206
0.239957622715
0.239957600682
0.239957599812
0.239957599785
0.239957599782
0.239957599783
0.239957599783
0.239957599786
0.239957599816
0.239957599895
0.239957594795
0.239957446059
0.239954032144
0.23987923247
0.237417860328
0.239954190259
0.239954166685
0.239954165783
0.239954165797
0.239954165749
0.239954165753
0.239954165751
0.239954165765
0.239954165999
0.239954165884
0.239954161617
0.239954032139
0.239950892567
0.239878123352
0.237417679978
0.239879287903
0.239879259444
0.239879257059
0.239879258936
0.239879256832
0.239879256803
0.239879256818
0.239879256829
0.239879256873
0.239879257391
0.239879256433
0.239879232434
0.23987812113
0.239832363957
0.237410041603
0.237417883172
0.237417876178
0.237417876192
0.237417876228
0.237417863011
0.23741786306
0.237417863136
0.237417863211
0.237417863282
0.237417863085
0.237417863208
0.237417860318
0.237417679969
0.237410041604
0.237387002612
0.239957771016
0.239957775115
0.239957777374
0.23995777781
0.239957777958
0.2399577782
0.239957777866
0.239957777936
0.239957778446
0.239957777717
0.23995777274
0.239957622696
0.23995419029
0.239879290311
0.237417888459
0.239957775861
0.239957756219
0.239957755931
0.23995775604
0.23995775629
0.239957756517
0.239957755957
0.239957755972
0.239957755957
0.239957755802
0.239957750841
0.239957600672
0.239954166634
0.239879257475
0.237417870015
0.239957777591
0.239957755944
0.239957755196
0.239957755393
0.239957755546
0.239957755112
0.239957755091
0.239957755499
0.239957755088
0.239957754935
0.239957749975
0.239957599804
0.239954165769
0.239879256948
0.237417869792
0.239957777884
0.239957756041
0.239957755399
0.239957755456
0.23995775515
0.239957755054
0.239957755064
0.239957755661
0.23995775506
0.239957754907
0.239957749948
0.239957599776
0.239954165748
0.239879256973
0.237417870327
0.239957777992
0.239957756312
0.239957755576
0.239957755082
0.239957755061
0.239957755044
0.239957755064
0.239957755062
0.239957755037
0.239957754905
0.239957749946
0.239957599775
0.239954165741
0.239879256943
0.237417870023
0.239957778234
0.239957756527
0.239957755115
0.239957755051
0.239957755039
0.239957755082
0.239957755642
0.23995775506
0.239957755035
0.239957754903
0.239957749947
0.239957599775
0.239954165741
0.239879256932
0.237417870163
0.239957778037
0.239957755971
0.239957755067
0.239957755041
0.239957755082
0.239957755643
0.239957755081
0.239957755039
0.239957755031
0.239957754901
0.239957749947
0.239957599776
0.239954165742
0.239879256945
0.237417870477
0.239957777871
0.23995775597
0.239957755072
0.239957755064
0.239957755643
0.239957755081
0.239957755039
0.239957755036
0.239957755031
0.239957754906
0.239957749947
0.239957599778
0.239954165757
0.239879256971
0.237417870659
0.239957778405
0.239957756556
0.239957755088
0.239957755039
0.239957755058
0.239957755036
0.239957755031
0.239957755031
0.239957755033
0.239957754905
0.239957749949
0.239957599806
0.239954165865
0.239879256975
0.237417870804
0.239957777724
0.239957755824
0.239957754936
0.239957754907
0.239957754906
0.239957754902
0.239957754901
0.239957754906
0.239957754905
0.239957754778
0.239957749848
0.239957599807
0.239954165607
0.239879256805
0.237417862246
0.239957772742
0.239957750841
0.239957749973
0.239957749948
0.239957749946
0.239957749947
0.239957749947
0.239957749947
0.239957749947
0.239957749848
0.239957744988
0.239957594779
0.239954161582
0.239879256299
0.237417862305
0.239957622698
0.239957600673
0.239957599803
0.239957599777
0.239957599774
0.239957599776
0.239957599775
0.239957599778
0.239957599806
0.239957599828
0.23995759478
0.239957446047
0.239954032125
0.239879232396
0.237417859302
0.239954190244
0.239954166673
0.239954165769
0.239954165784
0.239954165735
0.23995416574
0.239954165737
0.239954165751
0.239954165866
0.23995416565
0.239954161598
0.23995403212
0.23995089255
0.239878123381
0.237417678942
0.239879287881
0.239879259428
0.239879256988
0.239879258917
0.239879256771
0.239879256743
0.239879256753
0.239879256763
0.23987925683
0.2398792564
0.239879256364
0.239879232356
0.239878121054
0.239832363858
0.237410040795
0.237417881908
0.237417868356
0.237417868525
0.237417868656
0.237417862076
0.237417862141
0.237417862232
0.237417862322
0.237417862423
0.23741786224
0.237417862328
0.237417859303
0.237417678912
0.237410040796
0.237387001524
0.23995779972
0.239957778155
0.239957777619
0.239957777901
0.23995777784
0.239957777867
0.239957778137
0.239957777991
0.2399577779
0.239957778345
0.239957773343
0.239957623247
0.239954190992
0.239879288002
0.237417890719
0.239957778183
0.239957756461
0.239957756035
0.239957755943
0.239957755943
0.239957755962
0.239957756104
0.239957756549
0.239957756588
0.239957756484
0.239957751507
0.23995760135
0.239954167428
0.239879259462
0.237417872307
0.239957777676
0.239957756036
0.239957755104
0.239957755077
0.239957755089
0.239957755215
0.239957755368
0.239957755142
0.239957755729
0.239957755621
0.239957750662
0.239957600498
0.239954166575
0.239879259118
0.237417872087
0.239957777837
0.239957755942
0.239957755077
0.239957755057
0.23995775524
0.239957755326
0.239957755363
0.239957755114
0.239957755707
0.239957755594
0.239957750636
0.239957600469
0.239954166545
0.23987925908
0.237417869415
0.239957777839
0.239957755945
0.239957755093
0.239957755144
0.239957755251
0.239957755369
0.239957755673
0.239957755696
0.239957755727
0.239957755586
0.239957750634
0.239957600469
0.239954166548
0.239879259125
0.237417872315
0.239957777846
0.239957755966
0.239957755321
0.239957755203
0.239957755203
0.239957755288
0.239957755131
0.239957755702
0.239957755707
0.239957755501
0.239957750628
0.239957600478
0.239954166549
0.239879259105
0.237417872452
0.239957778005
0.239957756078
0.23995775532
0.239957755311
0.239957755328
0.239957755122
0.239957755678
0.239957755714
0.239957755605
0.239957755438
0.239957750624
0.239957600476
0.239954166549
0.239879259098
0.237417869568
0.239957777937
0.239957756229
0.239957755718
0.239957755701
0.239957755136
0.239957755679
0.239957755713
0.239957755706
0.239957755612
0.239957755574
0.239957750639
0.239957600471
0.239954166529
0.23987925913
0.237417869746
0.239957777873
0.239957756003
0.239957755726
0.239957755722
0.239957755706
0.239957755704
0.239957755605
0.239957755612
0.239957755704
0.239957755592
0.239957750631
0.239957600428
0.23995416578
0.239879258832
0.237417869899
0.239957778342
0.239957756457
0.239957755615
0.239957755593
0.239957755584
0.239957755482
0.239957755437
0.239957755573
0.239957755589
0.239957755464
0.239957750467
0.239957599686
0.23995416555
0.239879259349
0.237417903895
0.239957773335
0.239957751452
0.239957750594
0.23995775063
0.239957750634
0.239957750626
0.239957750623
0.239957750634
0.239957750634
0.239957750463
0.239957744899
0.239957595385
0.239954162341
0.23987925893
0.237417904025
0.239957623227
0.239957601346
0.239957600489
0.239957600466
0.239957600466
0.239957600468
0.239957600474
0.239957600471
0.239957600429
0.239957599698
0.239957595383
0.239957446726
0.239954032917
0.239879234995
0.237417901118
0.239954191035
0.2399541674
0.23995416657
0.239954166506
0.239954166551
0.239954166553
0.239954166556
0.239954166536
0.239954165768
0.239954165674
0.239954162323
0.239954032927
0.239950893374
0.239878121513
0.237417720705
0.239879290459
0.239879257685
0.239879259073
0.239879256919
0.239879259376
0.239879259415
0.239879259417
0.239879259424
0.23987925935
0.239879256829
0.23987925886
0.239879235016
0.239878123751
0.239832367604
0.237410082114
0.237417923875
0.237417870739
0.237417870904
0.237417871027
0.237417903275
0.23741790336
0.237417903426
0.237417903424
0.237417903477
0.237417904034
0.237417904037
0.237417901128
0.237417720747
0.237410082115
0.237387044229
0.239957800141
0.23995777838
0.239957777807
0.239957777958
0.239957777838
0.239957777861
0.239957778138
0.239957778072
0.239957777856
0.239957778042
0.239957772765
0.239957622744
0.239954190752
0.239879287908
0.23741789382
0.239957778401
0.239957756668
0.239957756091
0.239957755942
0.239957755938
0.239957755956
0.239957756106
0.239957756544
0.239957756083
0.239957755827
0.239957750859
0.239957600691
0.239954166692
0.239879259461
0.237417875087
0.239957777841
0.239957756092
0.239957755103
0.239957755073
0.239957755084
0.239957755216
0.239957755369
0.239957755121
0.239957755473
0.239957754965
0.239957749988
0.239957599817
0.239954165798
0.239879258272
0.237417874981
0.239957777867
0.239957755941
0.239957755073
0.239957755054
0.239957755238
0.239957755327
0.239957755364
0.239957755089
0.239957755681
0.239957754954
0.23995774996
0.239957599793
0.239954165774
0.239879257832
0.23741787215
0.239957777834
0.23995775594
0.239957755089
0.239957755254
0.239957755253
0.23995775537
0.239957755669
0.239957755222
0.239957755475
0.239957754951
0.23995774996
0.239957599811
0.239954165772
0.239879258494
0.237417875158
0.239957777837
0.239957755959
0.239957755323
0.239957755205
0.239957755205
0.239957755289
0.239957755089
0.23995775543
0.239957755097
0.239957754971
0.239957749987
0.239957600405
0.239954165795
0.239879258241
0.237417875259
0.239957778036
0.239957756079
0.239957755321
0.239957755313
0.239957755328
0.239957755082
0.239957755157
0.23995775507
0.23995775511
0.239957754922
0.23995774999
0.239957600024
0.239954165786
0.239879257214
0.237417872325
0.239957778045
0.23995775623
0.239957755717
0.239957755691
0.239957755109
0.239957755407
0.239957755071
0.239957755057
0.239957755049
0.239957754933
0.239957750171
0.239957599843
0.239954166283
0.239879258331
0.237417872457
0.239957777848
0.239957755961
0.239957755461
0.239957755106
0.239957755652
0.239957755096
0.239957755111
0.239957755048
0.239957755049
0.239957754919
0.239957750005
0.239957600096
0.239954165848
0.239879258781
0.237417872554
0.239957778036
0.239957755929
0.23995775496
0.239957754928
0.23995775495
0.239957754935
0.239957754919
0.239957754922
0.23995775492
0.239957754813
0.23995775025
0.239957599712
0.239954165671
0.239879256881
0.237417862291
0.239957772789
0.239957750856
0.23995774999
0.239957749959
0.239957749958
0.239957749962
0.239957749968
0.239957749967
0.239957749982
0.239957750124
0.239957744931
0.239957595201
0.239954161629
0.239879256493
0.237417867244
0.239957622719
0.239957600684
0.239957599816
0.239957599797
0.239957599786
0.239957599801
0.239957599916
0.239957599824
0.239957600208
0.239957599712
0.239957595203
0.239957446102
0.239954032204
0.239879234655
0.237417859107
0.239954190253
0.239954166641
0.239954165806
0.239954166264
0.239954165768
0.239954165751
0.239954165771
0.239954166255
0.239954165792
0.239954165768
0.23995416169
0.239954032172
0.239950892764
0.239878121301
0.237417693935
0.239879287935
0.23987925715
0.239879257217
0.239879256805
0.239879256839
0.239879256816
0.239879256856
0.239879256841
0.239879256845
0.239879257016
0.239879258515
0.239879232485
0.239878121138
0.239832363918
0.237410040286
0.237417881794
0.23741787428
0.237417874374
0.23741787446
0.237417861669
0.237417861712
0.237417861798
0.237417861862
0.237417861868
0.237417861989
0.237417877031
0.237417859091
0.237417678668
0.23741004027
0.237387001574
0.239957800746
0.239957778995
0.23995777841
0.239957778509
0.239957778523
0.23995777852
0.239957778509
0.239957778478
0.239957778478
0.239957778044
0.239957772729
0.239957622724
0.23995419076
0.239879290066
0.23741790506
0.239957779011
0.239957757297
0.239957756641
0.23995775663
0.23995775663
0.239957756627
0.239957756621
0.239957756609
0.239957755957
0.239957755814
0.239957750844
0.239957600674
0.239954166687
0.239879259835
0.237417886376
0.23995777851
0.239957756644
0.239957755791
0.239957755763
0.239957755762
0.239957755758
0.239957755754
0.23995775574
0.239957755471
0.239957754956
0.239957749975
0.239957599802
0.239954165786
0.23987925827
0.237417886221
0.239957778525
0.239957756631
0.239957755763
0.239957755734
0.239957755628
0.239957755733
0.239957755729
0.239957755711
0.239957755698
0.239957754944
0.239957749947
0.239957599778
0.239954165767
0.239879257862
0.23741789682
0.239957778525
0.23995775663
0.239957755763
0.239957755663
0.239957755729
0.239957755728
0.239957755719
0.239957755168
0.239957755463
0.239957754941
0.239957749946
0.239957599798
0.23995416576
0.239879258499
0.237417886424
0.239957778523
0.239957756627
0.239957755758
0.23995775573
0.239957755727
0.239957755729
0.239957755695
0.239957755425
0.239957755085
0.239957754943
0.239957749969
0.239957600405
0.239954165779
0.239879258239
0.237417886502
0.239957778505
0.239957756622
0.239957755754
0.239957755728
0.239957755727
0.239957755695
0.239957755154
0.239957755056
0.239957755097
0.239957754889
0.239957749969
0.239957599938
0.239954165766
0.239879256904
0.237417896941
0.239957778444
0.239957756622
0.239957755749
0.239957755719
0.239957755709
0.239957755399
0.239957755056
0.239957755048
0.239957755028
0.239957754915
0.239957750095
0.239957599832
0.239954166287
0.239879258363
0.237417897137
0.239957778498
0.239957756585
0.239957755469
0.239957755095
0.239957755669
0.239957755085
0.239957755098
0.239957755022
0.239957755028
0.239957754907
0.239957749997
0.239957600102
0.239954166475
0.239879259088
0.237417897226
0.239957778038
0.239957755909
0.239957754946
0.239957754921
0.23995775494
0.239957754924
0.239957754887
0.2399577549
0.239957754907
0.239957754806
0.23995775026
0.239957600282
0.239954165691
0.239879256834
0.237417861587
0.239957772752
0.23995775082
0.239957749955
0.239957749943
0.239957749944
0.239957749944
0.239957749947
0.239957749956