/*--------------------------------*- C++ -*----------------------------------*\
| =========                 |                                                 |
| \\      /  F ield         | OpenFOAM: The Open Source CFD Toolbox           |
|  \\    /   O peration     | Version:  2406                                  |
|   \\  /    A nd           | Website:  www.openfoam.com                      |
|    \\/     M anipulation  |                                                 |
\*---------------------------------------------------------------------------*/
FoamFile
{
    version     2.0;
    format      ascii;
    arch        "LSB;label=32;scalar=64";
    class       volScalarField;
    location    "0.01";
    object      nut;
}
// * * * * * * * * * * * * * * * * * * * * * * * * * * * * * * * * * * * * * //

dimensions      [0 2 -1 0 0 0 0];

internalField   nonuniform List<scalar> 
29768
(
0.134831460674
0.00438248792461
0.0105365100279
0.0784493402985
0.130904211373
0.134703669752
0.134840713161
0.1348443867
0.134844455093
0.134843940722
0.134824628243
0.134259400525
0.122847000185
0.0435669523282
0.00182266498572
0.00438240807964
0.070136411138
0.0723706615165
0.128090455314
0.134525882987
0.134834166601
0.134844199217
0.134844452636
0.134844446555
0.134843930571
0.134824614253
0.13425931312
0.122846223072
0.0435664582913
0.00182266490922
0.00653554764601
0.0433600301941
0.123910648709
0.134299074874
0.134824911171
0.134843907508
0.134844445141
0.134844457353
0.134844446303
0.134843930205
0.134824613694
0.13425930907
0.122846190401
0.0435664528143
0.00182266490914
0.0419139245077
0.120532294714
0.134053015915
0.134813893456
0.134843525049
0.134844434355
0.134844457371
0.134844457654
0.134844446298
0.134843930194
0.134824613678
0.134259308784
0.122846183986
0.0435664236814
0.00182266490908
0.125220877468
0.134117340487
0.134810071188
0.134843246596
0.134844423649
0.134844457076
0.134844457861
0.134844457663
0.134844446298
0.134843930194
0.134824613686
0.134259308966
0.12284618668
0.0435664312784
0.00182266490908
0.134513270316
0.134821298276
0.134843399171
0.134844421708
0.134844456879
0.134844457858
0.134844457878
0.134844457664
0.134844446298
0.134843930195
0.134824613703
0.134259309397
0.122846195188
0.0435664666183
0.0018226649092
0.134836608627
0.134843905947
0.134844432544
0.134844456979
0.134844457853
0.134844457878
0.134844457874
0.134844457661
0.134844446294
0.134843930191
0.134824613695
0.134259309249
0.122846190467
0.0435664407277
0.00182266490911
0.1348443212
0.134844447334
0.134844457077
0.134844457645
0.134844457663
0.134844457664
0.134844457661
0.134844457447
0.13484444608
0.134843929976
0.134824613492
0.134259309317
0.1228461955
0.0435664612203
0.00182266490919
0.134844454311
0.134844446413
0.134844446298
0.134844446297
0.134844446297
0.134844446298
0.134844446295
0.134844446079
0.134844434711
0.13484391861
0.134824602147
0.134259298421
0.122846190673
0.0435664664967
0.00182266490915
0.134843940714
0.13484393057
0.134843930205
0.134843930195
0.134843930195
0.134843930195
0.134843930191
0.134843929976
0.13484391861
0.134843402525
0.134824086598
0.134258795635
0.122845861609
0.0435664698488
0.00182266482143
0.134824628244
0.134824614247
0.1348246137
0.134824613688
0.134824613695
0.134824613693
0.134824613693
0.134824613492
0.134824602144
0.134824086596
0.134804787927
0.134239913623
0.122832854281
0.0435663063653
0.00182266481721
0.134259400576
0.134259312885
0.134259309174
0.134259309131
0.13425930929
0.134259309063
0.134259309178
0.134259309298
0.134259298325
0.134258795591
0.134239913473
0.133685319886
0.122430722702
0.0435572799703
0.00182266489805
0.122847000499
0.122846216866
0.122846191591
0.122846191916
0.12284619395
0.122846187552
0.122846189262
0.122846195223
0.122846187911
0.122845861132
0.122832850889
0.12243072173
0.113665518371
0.0431519704422
0.00182266411306
0.0435669499899
0.0435664276361
0.0435664533027
0.0435664575327
0.043566462538
0.0435664325515
0.0435664378064
0.0435664606873
0.0435664523073
0.0435664702651
0.0435662946705
0.0435572779852
0.0431519889619
0.0311741432573
0.00182263476457
0.00182266496453
0.00182266481947
0.00182266481942
0.00182266481945
0.00182266490924
0.00182266490918
0.00182266490918
0.00182266490923
0.00182266490923
0.00182266490883
0.00182266481775
0.00182266489596
0.00182266411305
0.00182263476423
0.00163687711907
0.134831460674
0.00374830021899
0.0355706316462
0.114601818987
0.133756800545
0.134806922146
0.134843475216
0.134844442439
0.13484445188
0.134843936226
0.134824621778
0.134259355999
0.122846580112
0.0435665757103
0.00182266404534
0.00374825402259
0.0379005207199
0.105947485658
0.132626304399
0.134745981964
0.134841301748
0.134844374684
0.13484445198
0.134844442188
0.13484392605
0.134824607799
0.134259268946
0.122845807216
0.0435660893781
0.00182266396826
0.0276131998759
0.102946446919
0.13205815113
0.134693111524
0.134838579467
0.134844278759
0.134844449301
0.134844453141
0.134844441853
0.134843925683
0.134824607242
0.13425926489
0.122845774011
0.0435660800867
0.00182266396822
0.107733190324
0.132376189367
0.134689839011
0.134837279277
0.134844199621
0.134844446367
0.134844453283
0.134844453214
0.134844441844
0.134843925672
0.134824607232
0.134259264887
0.122845774739
0.0435660849049
0.00182266396827
0.133497337537
0.13474072669
0.134838571707
0.134844201352
0.134844445072
0.13484445323
0.134844453423
0.134844453213
0.134844441844
0.134843925672
0.134824607238
0.134259265018
0.122845776574
0.043566089533
0.00182266396832
0.134804485904
0.134841381592
0.13484428483
0.134844446537
0.134844453232
0.134844453426
0.134844453431
0.134844453213
0.134844441844
0.134843925673
0.134824607248
0.13425926521
0.122845779176
0.0435660960109
0.00182266396838
0.134843570632
0.1348443828
0.134844449602
0.134844453288
0.134844453423
0.134844453431
0.134844453424
0.134844453209
0.13484444184
0.13484392567
0.134824607252
0.134259265346
0.122845780958
0.0435661002289
0.00182266396843
0.134844447371
0.134844452258
0.13484445315
0.134844453215
0.134844453216
0.134844453213
0.134844453209
0.134844452995
0.134844441627
0.134843925456
0.134824607046
0.134259265285
0.122845782817
0.0435661053056
0.00182266396849
0.13484445201
0.134844442198
0.134844441854
0.134844441844
0.134844441844
0.134844441844
0.134844441841
0.134844441627
0.134844430258
0.134843914088
0.134824595699
0.134259254396
0.122845777821
0.0435661094715
0.00182266396855
0.13484393623
0.134843926051
0.134843925683
0.134843925672
0.134843925672
0.134843925673
0.13484392567
0.134843925456
0.134843914088
0.134843397935
0.134824080091
0.134258751745
0.122845450387
0.0435661129809
0.00182266396766
0.134824621786
0.134824607803
0.134824607244
0.134824607235
0.134824607241
0.134824607254
0.134824607251
0.134824607045
0.134824595694
0.134824080074
0.134804779486
0.134239867665
0.122832439443
0.0435659438671
0.00182266396735
0.134259356149
0.134259269036
0.134259264959
0.134259264959
0.134259265072
0.134259265304
0.134259265323
0.134259265253
0.134259254294
0.134258751373
0.134239867545
0.133685238268
0.122430292663
0.0435569390001
0.00182266395645
0.122846582099
0.122845808428
0.122845775012
0.122845775782
0.122845777281
0.122845779734
0.122845780621
0.122845782435
0.122845776696
0.122845446493
0.12283243799
0.122430291101
0.113664896421
0.0431516300164
0.00182266326251
0.0435665801616
0.0435660923686
0.0435660826177
0.0435660872321
0.0435660909838
0.0435660955424
0.043566099598
0.0435661045765
0.0435661078864
0.043566108602
0.0435659417788
0.0435569367406
0.0431516259219
0.0311738896925
0.00182263390955
0.00182266404545
0.00182266396819
0.00182266396808
0.0018226639681
0.00182266396857
0.00182266396859
0.00182266396859
0.00182266396861
0.00182266396863
0.00182266396822
0.00182266396743
0.00182266395646
0.0018226632625
0.00182263390955
0.00163691631458
0.00374828357798
0.0239087281331
0.101402938198
0.132466557611
0.134746328075
0.134841482988
0.134844391855
0.134844462153
0.134844452162
0.134843936153
0.134824621615
0.134259354298
0.122846564673
0.0435665625564
0.00182266403324
0.0313312112647
0.0981721232361
0.131039775904
0.134632261767
0.134836309217
0.134844216022
0.134844448187
0.134844453403
0.134844442141
0.134843925974
0.134824607638
0.134259267263
0.122845791828
0.0435660754139
0.00182266395618
0.105670456079
0.131408115685
0.13459385272
0.134832121172
0.13484400922
0.134844440951
0.134844453103
0.134844453144
0.134844441781
0.134843925606
0.134824607082
0.134259263228
0.122845758853
0.0435660666535
0.0018226639562
0.132923647245
0.134668271772
0.134833170411
0.134843938698
0.134844435738
0.134844452908
0.134844453343
0.134844453139
0.13484444177
0.134843925595
0.134824607071
0.134259263209
0.122845759454
0.043566071296
0.00182266395639
0.134773227395
0.13483820872
0.134844075841
0.134844436957
0.134844452842
0.134844453342
0.134844453353
0.134844453139
0.13484444177
0.134843925595
0.134824607078
0.134259263367
0.122845761648
0.0435660769078
0.00182266395653
0.134842549842
0.134844284891
0.134844443453
0.134844452963
0.134844453343
0.134844453356
0.134844453352
0.134844453139
0.13484444177
0.134843925596
0.134824607088
0.134259263549
0.122845764065
0.043566083014
0.00182266395672
0.134844423052
0.134844450074
0.134844453168
0.134844453345
0.134844453352
0.134844453352
0.134844453349
0.134844453135
0.134844441767
0.134843925592
0.134824607092
0.134259263697
0.122845766159
0.0435660884299
0.00182266395687
0.134844462859
0.134844453444
0.134844453146
0.134844453143
0.134844453138
0.134844453139
0.134844453135
0.134844452921
0.134844441553
0.134843925379
0.13482460689
0.134259263692
0.122845768567
0.0435660942291
0.00182266395704
0.134844452176
0.13484444214
0.134844441781
0.134844441771
0.13484444177
0.13484444177
0.134844441767
0.134844441553
0.134844430184
0.134843914011
0.134824595543
0.134259252805
0.12284576366
0.0435660989925
0.00182266395718
0.134843936153
0.134843925974
0.134843925606
0.134843925595
0.134843925595
0.134843925596
0.134843925593
0.134843925379
0.134843914011
0.134843397855
0.134824079921
0.134258749953
0.122845434249
0.0435661008679
0.0018226639593
0.134824621616
0.134824607638
0.134824607079
0.134824607072
0.134824607079
0.134824607095
0.134824607094
0.134824606889
0.134824595538
0.134824079917
0.134804779251
0.134239866005
0.122832425379
0.0435659340984
0.00182266395883
0.134259354315
0.134259267267
0.134259263196
0.134259263243
0.134259263386
0.134259263667
0.134259263711
0.134259263664
0.134259252705
0.134258749808
0.134239865934
0.133685235336
0.122430278281
0.0435569302262
0.00182266394795
0.12284656478
0.122845791875
0.122845758509
0.122845759804
0.122845761737
0.122845764893
0.122845766127
0.122845768219
0.122845762593
0.122845432704
0.122832424528
0.122430276983
0.113664874383
0.0431516193494
0.00182266325431
0.0435665617926
0.0435660752442
0.0435660657876
0.04356607148
0.0435660764661
0.0435660827687
0.0435660878721
0.0435660936164
0.0435660976578
0.0435660990569
0.0435659329902
0.0435569285143
0.0431516174917
0.0311738844459
0.00182263389958
0.00182266403654
0.00182266395686
0.00182266395679
0.00182266395689
0.00182266395693
0.00182266395704
0.00182266395712
0.00182266395722
0.00182266395731
0.00182266395951
0.00182266395905
0.00182266394766
0.00182266325434
0.00182263389958
0.00163692450658
0.0359028529358
0.10767901299
0.132537779453
0.134729025983
0.13484031142
0.134844347632
0.134844461527
0.134844463859
0.134844452448
0.13484393643
0.13482462214
0.134259359487
0.122846614891
0.0435666002779
0.00182266419113
0.113806290845
0.132193253193
0.134653709097
0.134835328353
0.134844133186
0.13484444521
0.13484445391
0.134844453778
0.13484444241
0.134843926252
0.134824608144
0.134259272336
0.122845840353
0.0435661103668
0.00182266411403
0.133300325237
0.134686054047
0.134833960145
0.134843972873
0.134844437067
0.134844453319
0.134844453669
0.134844453417
0.13484444205
0.134843925884
0.134824607609
0.134259268536
0.122845813494
0.0435661335042
0.00182266411418
0.134775423268
0.134837793058
0.134844033319
0.134844434825
0.134844453122
0.134844453669
0.134844453619
0.134844453396
0.134844442038
0.134843925873
0.134824607577
0.134259268303
0.122845808119
0.0435661047893
0.00182266411431
0.134842244678
0.134844242014
0.134844440497
0.134844453178
0.134844453668
0.134844453624
0.134844453618
0.134844453405
0.134844442039
0.134843925873
0.134824607602
0.134259268594
0.122845815258
0.0435661412054
0.00182266411459
0.134844408231
0.134844448672
0.134844453429
0.134844453668
0.134844453623
0.134844453621
0.134844453609
0.134844453406
0.134844442039
0.134843925874
0.134824607607
0.134259268698
0.122845816705
0.0435661452367
0.00182266411484
0.134844463023
0.134844453987
0.134844453663
0.13484445362
0.134844453617
0.134844453609
0.134844453615
0.134844453404
0.134844442036
0.13484392587
0.134824607612
0.13425926886
0.122845818985
0.0435661504818
0.00182266411508
0.134844463867
0.134844453778
0.134844453416
0.134844453405
0.134844453396
0.134844453405
0.134844453404
0.13484445319
0.134844441822
0.134843925657
0.134824607409
0.134259268878
0.122845821762
0.0435661563324
0.00182266411533
0.134844452449
0.134844442399
0.134844442045
0.134844442039
0.134844442038
0.134844442039
0.134844442036
0.134844441822
0.134844430453
0.134843914289
0.134824596036
0.134259257788
0.122845814642
0.0435661582018
0.00182266411555
0.134843936428
0.13484392625
0.134843925883
0.134843925873
0.134843925873
0.134843925873
0.13484392587
0.134843925657
0.134843914289
0.134843398139
0.134824080366
0.134258753686
0.122845469667
0.0435661221057
0.00182266411907
0.134824622111
0.134824608165
0.134824607611
0.1348246076
0.134824607606
0.13482460759
0.134824607613
0.134824607407
0.134824596052
0.134824080441
0.134804780012
0.134239871096
0.122832475125
0.0435659912196
0.0018226641191
0.13425935915
0.134259272541
0.134259268576
0.134259268576
0.134259268695
0.134259268643
0.134259268883
0.134259268823
0.13425925766
0.13425875489
0.134239871281
0.13368524473
0.122430330138
0.0435569865536
0.00182266410887
0.122846610623
0.122845846172
0.122845814251
0.12284581496
0.122845816624
0.122845816885
0.122845819364
0.122845821024
0.122845810063
0.12284548429
0.122832475263
0.122430330068
0.113664941277
0.0431516389622
0.00182266341542
0.0435665957718
0.0435661426126
0.0435661349488
0.0435661390194
0.0435661431514
0.0435661468454
0.0435661509954
0.0435661550193
0.0435661285017
0.0435661575423
0.0435659728039
0.0435569863159
0.0431516757091
0.0311739289983
0.00182263405969
0.00182266419688
0.00182266411454
0.00182266411455
0.00182266411471
0.00182266411511
0.00182266411531
0.0018226641155
0.0018226641157
0.00182266411583
0.00182266411921
0.00182266411919
0.0018226641085
0.00182266341554
0.00182263405969
0.00163695814493
0.125942570994
0.133872634465
0.134778559947
0.134841432292
0.134844360266
0.134844460988
0.134844463699
0.134844463673
0.134844452526
0.134843936171
0.134824621727
0.13425935722
0.122846597464
0.0435666011694
0.00182266408246
0.13408569603
0.134766949972
0.134839385658
0.134844225126
0.134844445992
0.13484445383
0.134844453739
0.134844453532
0.134844442157
0.134843925979
0.134824607787
0.134259271866
0.122845839609
0.0435661106451
0.00182266400532
0.134803493954
0.134840370789
0.134844193764
0.134844441838
0.134844453103
0.134844453384
0.13484445338
0.134844453389
0.134844441797
0.134843925607
0.13482460716
0.134259265385
0.122845788279
0.0435661149426
0.00182266400542
0.134842878014
0.13484429633
0.1348444435
0.134844452998
0.134844453417
0.134844453365
0.134844453367
0.134844453477
0.134844441785
0.134843925599
0.134824607216
0.134259267755
0.122845806489
0.043566104771
0.00182266400565
0.134844416608
0.134844448985
0.134844453207
0.134844453421
0.134844453367
0.134844453358
0.134844453366
0.134844453153
0.13484444177
0.134843925595
0.134824607125
0.134259264581
0.122845783985
0.0435661223004
0.00182266400591
0.134844462644
0.134844453917
0.134844453388
0.134844453367
0.134844453359
0.13484445338
0.134844453679
0.134844453151
0.134844441769
0.134843925596
0.134824607121
0.13425926434
0.122845773908
0.043566114539
0.00182266400617
0.134844463849
0.134844453749
0.134844453372
0.134844453355
0.134844453376
0.13484445368
0.134844453375
0.134844453135
0.134844441766
0.134843925593
0.13482460713
0.134259264555
0.122845776555
0.0435661144021
0.00182266400644
0.134844463668
0.134844453531
0.134844453152
0.134844453152
0.134844453465
0.134844453164
0.134844453136
0.13484445292
0.134844441552
0.13484392538
0.134824606952
0.134259264695
0.122845782293
0.0435661324042
0.00182266400675
0.134844452505
0.134844442481
0.134844441795
0.134844441773
0.134844441783
0.13484444177
0.134844441766
0.134844441552
0.134844430183
0.134843914013
0.134824595665
0.134259256953
0.122845806881
0.0435661348627
0.00182266400693
0.134843936176
0.13484392599
0.134843925608
0.134843925595
0.134843925596
0.134843925599
0.134843925593
0.134843925378
0.134843914009
0.134843397857
0.134824080028
0.134258753339
0.1228454685
0.0435661217027
0.00182266395476
0.134824621762
0.134824607714
0.134824607159
0.134824607104
0.134824607125
0.134824607213
0.134824607129
0.134824606911
0.134824595569
0.134824079956
0.134804779547
0.134239866735
0.122832432565
0.0435659492707
0.00182266395498
0.134259358761
0.134259268955
0.134259265138
0.134259264114
0.134259264471
0.134259267521
0.134259264632
0.134259264447
0.134259254157
0.134258750843
0.134239870666
0.133685238662
0.122430317902
0.0435569457372
0.00182266394392
0.122846610185
0.122845812276
0.122845787906
0.122845777257
0.122845785921
0.122845806029
0.122845786231
0.122845780538
0.12284578958
0.12284544515
0.122832472878
0.122430285862
0.113664935597
0.0431516389614
0.00182266325089
0.043566595594
0.043566110617
0.0435661175244
0.043566102367
0.0435661231439
0.0435661235316
0.0435661302427
0.0435661370509
0.0435661283463
0.0435661378504
0.0435659725845
0.0435569434828
0.0431516574731
0.0311739151874
0.00182263389837
0.0018226640317
0.00182266400483
0.00182266400489
0.00182266400502
0.00182266395423
0.00182266395442
0.00182266395471
0.001822663955
0.00182266395527
0.00182266395452
0.00182266395499
0.00182266394388
0.00182266325085
0.00182263389838
0.00163696516891
0.134670859453
0.13482650846
0.134843278697
0.134844410611
0.13484446211
0.13484446392
0.134844463688
0.134844463584
0.134844452531
0.134843936167
0.134824621731
0.13425935734
0.122846600394
0.0435666437606
0.00182266405202
0.134830374829
0.134843050005
0.134844364405
0.134844449904
0.134844453803
0.134844454015
0.134844453706
0.134844453528
0.134844442152
0.134843925977
0.134824607824
0.134259272396
0.122845848325
0.043566139941
0.00182266398115
0.134843756162
0.134844382953
0.134844449049
0.134844453368
0.134844453581
0.134844453356
0.134844453363
0.134844453391
0.134844441792
0.134843925604
0.134824607161
0.134259265438
0.122845789842
0.0435661198288
0.00182266398029
0.134844438072
0.134844451217
0.134844453398
0.134844453535
0.134844453316
0.134844453341
0.134844453364
0.134844453487
0.134844441783
0.134843925597
0.134824607248
0.134259268258
0.12284581673
0.0435661496242
0.00182266398235
0.134844463159
0.134844453862
0.134844453594
0.134844453277
0.13484445334
0.134844453355
0.134844453365
0.134844453149
0.134844441768
0.134843925592
0.134824607117
0.134259264481
0.122845784688
0.0435661262808
0.00182266398118
0.134844463952
0.134844454012
0.134844453346
0.134844453344
0.134844453354
0.134844453379
0.13484445369
0.13484445315
0.134844441767
0.134843925594
0.134824607112
0.134259264212
0.122845773805
0.0435661168857
0.00182266398171
0.134844463782
0.134844453712
0.134844453359
0.134844453352
0.134844453375
0.134844453691
0.134844453371
0.134844453134
0.134844441764
0.13484392559
0.134824607121
0.134259264415
0.122845776128
0.0435661114701
0.00182266398292
0.134844463559
0.134844453527
0.134844453151
0.134844453151
0.134844453477
0.134844453161
0.134844453133
0.134844452918
0.13484444155
0.134843925379
0.134824606949
0.134259264563
0.12284578219
0.043566131991
0.00182266398362
0.134844452508
0.134844442491
0.134844441793
0.13484444177
0.134844441781
0.134844441768
0.134844441764
0.13484444155
0.134844430183
0.134843914013
0.134824595685
0.134259257119
0.12284580872
0.0435661344486
0.00182266398418
0.134843936174
0.134843925987
0.134843925605
0.134843925592
0.134843925593
0.134843925597
0.13484392559
0.134843925377
0.134843914009
0.134843397856
0.134824080088
0.134258754455
0.122845483251
0.0435661612852
0.00182266395129
0.134824621817
0.134824607708
0.134824607163
0.134824607098
0.134824607122
0.134824607238
0.134824607121
0.134824606899
0.134824595559
0.13482407994
0.134804779472
0.134239866547
0.122832431949
0.0435659479807
0.00182266395152
0.134259359792
0.134259268973
0.134259265175
0.134259264041
0.134259264428
0.134259267811
0.134259264518
0.134259264293
0.134259254107
0.134258750635
0.134239870698
0.133685237594
0.122430319174
0.0435569445667
0.00182266393998
0.122846626586
0.122845812313
0.122845789312
0.122845777755
0.122845786895
0.122845809029
0.122845786593
0.122845780461
0.122845790785
0.122845444561
0.122832475564
0.122430284662
0.113664947261
0.0431516771766
0.0018226632469
0.0435666478337
0.0435661071477
0.0435661222056
0.0435661015597
0.0435661269497
0.0435661272253
0.0435661332217
0.0435661395403
0.0435661634535
0.0435661395668
0.0435659955522
0.0435569432639
0.0431516584355
0.0311739161777
0.00182263389527
0.00182266402685
0.00182266397477
0.00182266397542
0.00182266397592
0.00182266395064
0.00182266395089
0.00182266395124
0.00182266395158
0.00182266395197
0.00182266395127
0.00182266395161
0.00182266393998
0.00182266324679
0.00182263389527
0.00163699122254
0.134842232309
0.134844226922
0.134844448046
0.134844463155
0.134844463749
0.134844463774
0.134844463865
0.134844463614
0.134844452115
0.134843936421
0.134824622131
0.134259359459
0.122846614146
0.0435666210601
0.00182266406071
0.134844280663
0.134844435409
0.134844452645
0.134844453692
0.134844453723
0.134844453701
0.134844453789
0.134844453802
0.134844442394
0.134843926251
0.1348246081
0.134259269728
0.122845819348
0.0435661410416
0.00182266398995
0.134844454724
0.134844452905
0.134844453335
0.134844453362
0.134844453371
0.134844453413
0.134844453488
0.134844453137
0.134844442036
0.134843925884
0.13482460762
0.134259268684
0.122845816068
0.0435661371671
0.00182266398911
0.134844463487
0.134844453701
0.134844453362
0.13484445336
0.134844453454
0.134844453417
0.134844453443
0.134844453062
0.13484444203
0.134843925871
0.134824607509
0.134259265227
0.122845781249
0.0435661320639
0.00182266397884
0.13484446376
0.134844453723
0.134844453374
0.134844453404
0.13484445338
0.134844453429
0.134844453654
0.134844453399
0.134844442042
0.134843925871
0.134824607596
0.134259268437
0.122845815082
0.0435661474832
0.00182266398999
0.13484446377
0.134844453702
0.134844453463
0.134844453419
0.134844453345
0.134844453444
0.134844453334
0.134844453427
0.134844442039
0.134843925844
0.134824607612
0.134259268606
0.122845813241
0.0435661298151
0.00182266399051
0.134844463856
0.134844453772
0.134844453474
0.134844453446
0.134844453402
0.13484445331
0.134844453592
0.134844453403
0.134844441994
0.134843925815
0.13482460762
0.134259268549
0.122845811632
0.0435661140754
0.00182266397943
0.134844463593
0.134844453622
0.134844453459
0.134844453393
0.134844453077
0.134844453407
0.134844453403
0.134844453184
0.134844441783
0.134843925656
0.134824607439
0.134259268872
0.122845821279
0.0435661445153
0.00182266398011
0.134844452154
0.134844442065
0.134844442035
0.134844442041
0.13484444203
0.134844442037
0.134844441998
0.134844441784
0.134844430454
0.134843914303
0.134824595957
0.134259254524
0.122845783002
0.0435661465749
0.0018226639807
0.134843936418
0.134843926236
0.134843925883
0.134843925874
0.13484392587
0.134843925832
0.134843925812
0.134843925654
0.1348439143
0.134843398139
0.134824080304
0.134258750864
0.122845447247
0.0435661468039
0.00182266411134
0.134824622034
0.134824608078
0.134824607619
0.134824607599
0.134824607619
0.134824607525
0.134824607618
0.134824607418
0.13482459603
0.134824080414
0.134804779487
0.134239869523
0.122832447343
0.0435659494227
0.00182266411184
0.13425935647
0.134259270577
0.134259268921
0.134259268567
0.13425926888
0.134259265758
0.134259268982
0.134259269007
0.134259257326
0.134258754473
0.134239867185
0.133685238472
0.12243028735
0.0435569480472
0.00182266410067
0.122846599832
0.122845816218
0.122845817876
0.122845802265
0.122845819132
0.122845790067
0.122845821405
0.122845823472
0.122845799373
0.122845483891
0.122832434449
0.122430302347
0.113664895
0.0431516463301
0.00182266340739
0.043566634709
0.0435661108488
0.0435661410909
0.0435661074308
0.0435661443043
0.0435661538647
0.0435661553029
0.0435661603069
0.0435661426225
0.0435661604807
0.0435659582468
0.0435569530944
0.0431516784369
0.0311739316475
0.00182263405405
0.00182266418812
0.00182266398393
0.00182266398456
0.00182266398504
0.00182266410896
0.00182266410928
0.00182266410953
0.00182266410953
0.00182266410973
0.00182266411187
0.00182266411189
0.00182266410071
0.00182266340755
0.00182263405405
0.00163699635496
0.134844451549
0.134844461523
0.134844463592
0.134844463813
0.134844463742
0.134844463752
0.134844463865
0.134844463652
0.134844452091
0.134843936341
0.13482462173
0.134259356418
0.122846593318
0.04356661883
0.00182266407262
0.134844462134
0.134844453825
0.134844453775
0.134844453703
0.134844453701
0.134844453693
0.134844453781
0.134844453798
0.134844442112
0.13484392598
0.13482460775
0.134259269071
0.12284581805
0.0435661491443
0.00182266400064
0.134844463665
0.134844453783
0.134844453351
0.134844453341
0.134844453353
0.134844453405
0.134844453482
0.134844453124
0.134844441898
0.134843925611
0.134824607205
0.134259266378
0.12284580044
0.0435661373347
0.00182266400023
0.134844463763
0.134844453701
0.134844453341
0.134844453343
0.13484445346
0.134844453447
0.134844453444
0.134844453049
0.134844442112
0.134843925612
0.134824607149
0.134259264487
0.122845778902
0.0435661349118
0.00182266398935
0.134844463742
0.1348444537
0.134844453358
0.13484445347
0.134844453406
0.134844453432
0.134844453651
0.134844453133
0.134844441957
0.13484392561
0.134824607181
0.134259265025
0.122845784515
0.043566125904
0.00182266400091
0.134844463746
0.134844453694
0.134844453459
0.134844453412
0.134844453346
0.134844453444
0.134844453311
0.134844453342
0.13484444179
0.134843925627
0.134824607171
0.134259265302
0.122845781374
0.043566127835
0.0018226640013
0.134844463875
0.134844453765
0.134844453468
0.134844453446
0.134844453404
0.134844453288
0.134844453305
0.13484445314
0.134844441801
0.134843925596
0.134824607182
0.134259265323
0.122845782953
0.0435661154995
0.00182266399002
0.134844463641
0.134844453621
0.134844453457
0.134844453389
0.134844453158
0.134844453333
0.13484445314
0.134844452923
0.134844441554
0.134843925389
0.134824607074
0.134259265462
0.122845800994
0.0435661459895
0.00182266399053
0.134844452139
0.134844442043
0.134844441887
0.134844441696
0.134844442034
0.134844441788
0.134844441801
0.134844441553
0.134844430183
0.134843914015
0.134824595629
0.134259254006
0.122845781105
0.0435661480852
0.0018226639909
0.134843936253
0.134843926033
0.134843925607
0.134843925597
0.134843925609
0.134843925607
0.134843925595
0.134843925379
0.134843914017
0.134843397873
0.13482408021
0.134258750661
0.122845446663
0.0435661479576
0.00182266395146
0.13482462174
0.134824607771
0.134824607181
0.134824607244
0.134824607183
0.134824607158
0.134824607184
0.13482460694
0.134824595681
0.134824080116
0.134804779459
0.134239868191
0.122832447272
0.0435659499793
0.0018226639705
0.134259356138
0.134259270201
0.134259265078
0.134259268175
0.13425926573
0.134259264516
0.134259265185
0.13425926491
0.134259257004
0.134258751361
0.134239866663
0.13368523835
0.122430286166
0.0435569516984
0.00182266393923
0.122846600428
0.122845815623
0.122845783003
0.122845802575
0.122845797033
0.122845778394
0.122845794467
0.122845785078
0.122845797186
0.122845450378
0.122832431077
0.12243030234
0.113664886262
0.0431516471376
0.00182266330452
0.0435666382902
0.0435661150899
0.043566138216
0.0435661152108
0.0435661429877
0.0435661323648
0.0435661498265
0.0435661460087
0.0435661437648
0.0435661269033
0.0435659590217
0.0435569550229
0.0431516435852
0.03117391528
0.00182263389331
0.00182266402641
0.00182266399754
0.0018226639979
0.00182266399823
0.00182266394908
0.00182266394924
0.00182266394957
0.00182266394982
0.00182266394984
0.0018226639503
0.00182266400811
0.00182266393917
0.00182266324585
0.00182263389325
0.00163701537241
0.134844474077
0.134844464254
0.134844464016
0.134844464056
0.134844464085
0.134844464062
0.134844464031
0.134844463814
0.134844452434
0.134843936345
0.134824621703
0.134259356277
0.122846592965
0.0435666229117
0.00182266411582
0.134844464262
0.134844454296
0.134844454024
0.134844454041
0.134844454032
0.134844454017
0.13484445401
0.134844453772
0.134844442039
0.134843925978
0.134824607856
0.134259272786
0.122845853174
0.0435661486875
0.00182266404402
0.134844464041
0.134844454028
0.134844453689
0.134844453674
0.134844453648
0.134844453659
0.134844453631
0.134844453408
0.134844441896
0.134843925608
0.134824607209
0.134259266506
0.122845801842
0.0435661413718
0.00182266404342
0.13484446407
0.134844454045
0.134844453671
0.134844453637
0.13484445357
0.134844453674
0.13484445362
0.134844453397
0.134844442124
0.134843925612
0.134824607269
0.134259268541
0.122845820872
0.0435661608121
0.00182266408415
0.134844464083
0.134844454028
0.134844453646
0.134844453588
0.134844453667
0.134844453628
0.134844453614
0.134844453096
0.134844441973
0.134843925607
0.134824607177
0.134259264983
0.122845784128
0.0435661249657
0.0018226640442
0.134844464056
0.134844454014
0.134844453648
0.134844453626
0.134844453623
0.134844453623
0.134844453604
0.134844453346
0.134844441786
0.134843925612
0.134824607144
0.134259264881
0.122845778393
0.0435661311091
0.0018226640445
0.134844464022
0.134844454006
0.134844453632
0.134844453619
0.134844453621
0.134844453603
0.134844453301
0.134844453136
0.134844441796
0.134843925579
0.134824607147
0.134259264756
0.122845779459
0.0435661152873