/*--------------------------------*- C++ -*----------------------------------*\
| =========                 |                                                 |
| \\      /  F ield         | OpenFOAM: The Open Source CFD Toolbox           |
|  \\    /   O peration     | Version:  2406                                  |
|   \\  /    A nd           | Website:  www.openfoam.com                      |
|    \\/     M anipulation  |                                                 |
\*---------------------------------------------------------------------------*/
FoamFile
{
    version     2.0;
    format      ascii;
    arch        "LSB;label=32;scalar=64";
    class       volScalarField;
    location    "0.01";
    object      omega_0;
}
// * * * * * * * * * * * * * * * * * * * * * * * * * * * * * * * * * * * * * //

dimensions      [0 0 -1 0 0 0 0];

internalField   nonuniform List<scalar> 
29768
(
1.78
1.78
58.2058968966
3.05851098112
1.8330729719
1.78137507499
1.779564804
1.77951632894
1.7795154264
1.77952221348
1.77977707814
1.78726876473
1.95327684833
5.5059923761
130.258787707
1.78
14.6473410867
3.31536354982
1.87333536926
1.78372888903
1.77965103503
1.77951864051
1.77951529645
1.77951537664
1.77952218503
1.77977710033
1.78726976418
1.95328901225
5.50605409719
130.258782252
470.907895118
5.53285892267
1.93652046478
1.78674097812
1.77977318482
1.77952248338
1.77951538896
1.77951522776
1.77951537354
1.77952218343
1.77977710128
1.78726981162
1.95328952472
5.50605477723
130.258782246
5.72364793453
1.99079198581
1.79002024956
1.77991862166
1.77952752997
1.77951553111
1.77951522735
1.77951522356
1.77951537339
1.77952218336
1.77977710129
1.78726981523
1.95328962655
5.50605847338
130.258782242
1.91626025989
1.78916182713
1.77996908215
1.77953120431
1.77951567238
1.77951523122
1.77951522084
1.77951522341
1.77951537337
1.77952218334
1.77977710116
1.7872698128
1.95328958371
5.50605751105
130.258782242
1.78389629393
1.77982087963
1.77952919115
1.779515698
1.77951523382
1.77951522089
1.7795152206
1.7795152234
1.77951537337
1.77952218333
1.77977710094
1.78726980703
1.95328944844
5.50605304692
130.258782251
1.77961896979
1.7795225103
1.77951555516
1.77951523251
1.77951522095
1.7795152206
1.77951522063
1.77951522343
1.77951537342
1.77952218338
1.77977710102
1.78726980899
1.95328952349
5.50605631996
130.258782244
1.77951719323
1.77951536643
1.77951523141
1.77951522369
1.77951522341
1.77951522339
1.77951522343
1.77951522624
1.77951537622
1.77952218618
1.77977710368
1.7872698081
1.95328944346
5.50605373073
130.25878225
1.77951543673
1.77951537852
1.7795153736
1.7795153734
1.77951537338
1.77951537337
1.77951537341
1.77951537623
1.77951552621
1.77952233616
1.77977725343
1.78726995311
1.95328952019
5.5060530626
130.258782247
1.7795222136
1.77952218505
1.77952218343
1.77952218335
1.77952218334
1.77952218334
1.77952218338
1.77952218619
1.77952233616
1.77952914595
1.77978405809
1.78727664532
1.95329475158
5.50605263703
130.258775992
1.77977707813
1.77977710041
1.7797771012
1.77977710116
1.77977710105
1.77977710108
1.77977710105
1.77977710369
1.77977725347
1.77978405812
1.78003881546
1.7875280049
1.95350156181
5.50607328847
130.258775691
1.78726876407
1.7872697673
1.78726981024
1.78726981062
1.78726980848
1.78726981151
1.78726980995
1.78726980835
1.7872699544
1.78727664591
1.7875280069
1.79494245546
1.95991690638
5.50721377548
130.258781456
1.95327684332
1.9532891109
1.95328950579
1.95328950042
1.95328946809
1.95328956982
1.95328954264
1.95328944783
1.95328956412
1.95329475919
1.95350161576
1.9599169219
2.11102635008
5.55891511321
130.258725479
5.50599267063
5.50605796844
5.50605471232
5.50605417685
5.5060535487
5.50605733968
5.506056687
5.50605378286
5.50605485729
5.50605258837
5.50607476998
5.50721401747
5.55891272817
7.69331127656
130.256632665
130.258786196
130.258775852
130.258775849
130.258775851
130.258782254
130.258782249
130.258782249
130.258782253
130.258782253
130.258782224
130.25877573
130.258781307
130.258725478
130.256632641
130.250326682
1.78
1.78
17.0293169167
2.09379228148
1.79398383668
1.78001074658
1.77952828257
1.77951551953
1.77951539493
1.77952219892
1.77977708956
1.78726928278
1.9532834388
5.50603953012
130.25872065
1.78
18.2188563588
2.26479508666
1.80927350121
1.7808155113
1.77955680261
1.77951625127
1.77951523124
1.77951536041
1.77952217082
1.77977711164
1.78727027757
1.95329553584
5.50610029241
130.258715153
36.0275438487
2.33081325397
1.81705662267
1.78151443584
1.77959272055
1.7795175107
1.77951526019
1.77951520947
1.77951535839
1.77952216925
1.77977711257
1.78727032511
1.95329605682
5.50610145548
130.25871515
2.22727463454
1.81269187428
1.78155772043
1.77960987849
1.77951855479
1.77951529872
1.77951520742
1.77951520834
1.7795153583
1.77952216918
1.7797771125
1.78727032495
1.95329604503
5.50610084662
130.258715154
1.797470467
1.78088496987
1.77959282307
1.77951853195
1.7795153158
1.7795152081
1.77951520554
1.77951520829
1.77951535829
1.77952216917
1.77977711241
1.78727032319
1.95329601585
5.50610026186
130.258715157
1.780042916
1.77955574894
1.77951743058
1.77951529648
1.77951520808
1.77951520551
1.77951520547
1.77951520828
1.77951535829
1.77952216917
1.77977711228
1.78727032064
1.95329597449
5.50609944343
130.258715162
1.77952702352
1.77951614416
1.77951525621
1.77951520734
1.77951520554
1.77951520547
1.77951520551
1.77951520833
1.77951535834
1.77952216921
1.77977711223
1.78727031883
1.95329594617
5.5060989105
130.258715166
1.77951545445
1.77951522756
1.77951520936
1.77951520834
1.77951520828
1.77951520828
1.77951520833
1.77951521114
1.77951536115
1.77952217202
1.77977711493
1.78727031963
1.9532959166
5.50609826909
130.25871517
1.77951539324
1.77951536033
1.77951535839
1.7795153583
1.77951535829
1.77951535829
1.77951535834
1.77951536115
1.77951551116
1.77952232202
1.77977726471
1.78727046458
1.95329599603
5.50609774278
130.258715174
1.7795221989
1.77952217082
1.77952216925
1.77952216918
1.77952216917
1.77952216916
1.77952216921
1.77952217202
1.77952232203
1.77952913271
1.77978407016
1.78727715498
1.95330120157
5.50609729937
130.25871511
1.77977708947
1.77977711159
1.77977711254
1.77977711246
1.77977711237
1.7797771122
1.77977711224
1.77977711496
1.77977726478
1.77978407038
1.78003885305
1.78752854223
1.95350807066
5.50611866269
130.258715088
1.7872692808
1.78727027638
1.78727032419
1.78727032399
1.78727032248
1.78727031939
1.78727031914
1.78727032006
1.78727046593
1.78727715994
1.78752854383
1.79494347591
1.95992370125
5.50725643628
130.258714311
1.95328340722
1.95329551657
1.95329604091
1.95329602846
1.95329600462
1.95329596563
1.95329595152
1.95329592267
1.95329601392
1.95330126347
1.95350809375
1.95992372626
2.11103779866
5.55895851969
130.258664827
5.50603896776
5.50609991459
5.50610113569
5.50610055253
5.50610007854
5.50609950262
5.50609899024
5.50609836117
5.50609794301
5.50609785245
5.50611892644
5.5072567217
5.55895904686
7.69337309097
130.256571694
130.258720657
130.258715148
130.258715141
130.258715141
130.258715175
130.258715176
130.258715177
130.258715178
130.258715179
130.25871515
130.258715094
130.258714312
130.258664826
130.256571694
130.250258343
1.78
26.9540208776
2.36628461375
1.81145544508
1.78081110418
1.77955456835
1.77951618558
1.77951525787
1.77951538968
1.77952219837
1.7797770902
1.78726930389
1.95328368251
5.50604118541
130.258719787
17.4462456151
2.44414346422
1.83117620154
1.78231954516
1.77962267983
1.7795183444
1.77951527986
1.77951521097
1.77951535955
1.77952217035
1.77977711227
1.78727029847
1.95329577877
5.50610205026
130.258714292
2.27074474668
1.82604416352
1.78282810101
1.77967794438
1.77952106685
1.77951536899
1.77951520855
1.77951520795
1.77951535786
1.77952216878
1.77977711319
1.78727034573
1.95329629609
5.50610314623
130.258714293
1.80522741384
1.78184302185
1.7796640969
1.77952199682
1.77951543755
1.77951521095
1.77951520514
1.77951520781
1.77951535779
1.77952216871
1.77977711313
1.78727034578
1.95329628633
5.5061025596
130.258714307
1.78045572452
1.77959761268
1.77952018778
1.77951542147
1.7795152118
1.77951520515
1.77951520499
1.77951520778
1.77951535778
1.7795221687
1.77977711302
1.78727034366
1.95329625144
5.50610185058
130.258714316
1.7795404891
1.77951743566
1.77951533598
1.77951521023
1.77951520514
1.77951520496
1.77951520497
1.77951520777
1.77951535778
1.77952216869
1.77977711289
1.78727034124
1.95329621301
5.50610107912
130.25871433
1.77951577393
1.77951525496
1.7795152077
1.77951520512
1.77951520499
1.77951520498
1.779515205
1.77951520781
1.77951535782
1.77952216873
1.77977711284
1.78727033926
1.95329617972
5.50610039487
130.258714341
1.77951524856
1.77951521044
1.77951520793
1.77951520781
1.77951520779
1.77951520778
1.77951520781
1.77951521062
1.77951536063
1.77952217154
1.77977711551
1.78727033934
1.95329614143
5.50609966216
130.258714353
1.77951538953
1.77951535956
1.77951535788
1.77951535779
1.77951535778
1.77951535778
1.77951535782
1.77951536063
1.77951551065
1.77952232155
1.77977726528
1.78727048424
1.95329621945
5.50609906032
130.258714363
1.77952219838
1.77952217035
1.77952216878
1.77952216871
1.7795221687
1.77952216869
1.77952216873
1.77952217154
1.77952232155
1.77952913228
1.77978407091
1.78727717733
1.95330145642
5.50609882389
130.258714514
1.7797770902
1.77977711228
1.77977711323
1.77977711311
1.77977711301
1.7797771128
1.77977711282
1.77977711552
1.77977726535
1.77978407097
1.78003885467
1.78752856281
1.95350829254
5.506119891
130.258714481
1.78726930367
1.78727029843
1.78727034616
1.78727034532
1.78727034341
1.78727033967
1.78727033909
1.78727033971
1.78727048558
1.78727717927
1.78752856376
1.79494351371
1.95992392968
5.50725753933
130.258713705
1.95328368082
1.95329577803
1.95329630156
1.95329628077
1.95329625002
1.95329619985
1.95329618024
1.95329614697
1.95329623643
1.95330148098
1.95350830608
1.95992395046
2.11103820594
5.55895988734
130.258664242
5.50604128242
5.50610207177
5.50610325569
5.50610253635
5.5061019064
5.50610111009
5.50610046535
5.50609973958
5.50609922902
5.50609905249
5.5061200308
5.50725775537
5.55896012651
7.69337437508
130.256570983
130.258720022
130.25871434
130.258714335
130.258714342
130.258714345
130.258714353
130.258714359
130.258714366
130.258714372
130.258714529
130.258714497
130.258713684
130.258664244
130.256570984
130.250257743
9.81999247766
2.22839182463
1.81048234745
1.7810397791
1.77957002652
1.77951676748
1.77951527102
1.77951524046
1.77951539093
1.77952219982
1.77977708838
1.78726923997
1.95328289072
5.50603648016
130.258731046
2.10843251485
1.81520015587
1.78203570889
1.77963562378
1.77951943415
1.77951532233
1.77951520937
1.7795152111
1.77951536107
1.77952217178
1.77977711071
1.78727023612
1.9532950139
5.50609769439
130.258725548
1.80012675863
1.78160780263
1.77965367428
1.77952154275
1.77951542096
1.7795152107
1.77951520612
1.77951520943
1.77951535941
1.77952217021
1.77977711134
1.78727028026
1.95329543398
5.5060947596
130.258725558
1.78042671952
1.77960309718
1.77952074511
1.77951544952
1.77951521307
1.77951520593
1.77951520654
1.77951520937
1.77951535935
1.77952217015
1.77977711156
1.78727028315
1.95329551924
5.50609838823
130.258725568
1.77954451515
1.77951799816
1.7795153758
1.77951521233
1.77951520594
1.77951520649
1.77951520654
1.77951520933
1.77951535933
1.77952217014
1.77977711122
1.78727027926
1.95329540572
5.50609378664
130.258725588
1.77951596787
1.77951527679
1.77951520926
1.77951520595
1.77951520651
1.7795152065
1.77951520655
1.77951520933
1.77951535933
1.77952217013
1.77977711115
1.78727027788
1.95329538271
5.50609327731
130.258725605
1.77951525133
1.77951520836
1.7795152062
1.77951520655
1.77951520655
1.77951520655
1.77951520656
1.77951520937
1.77951535938
1.77952217017
1.77977711109
1.78727027573
1.95329534648
5.50609261483
130.258725623
1.77951524038
1.7795152111
1.77951520944
1.77951520938
1.77951520937
1.77951520934
1.77951520937
1.77951521218
1.77951536219
1.77952217298
1.77977711376
1.78727027548
1.95329530231
5.5060918756
130.258725641
1.77951539095
1.77951536111
1.77951535945
1.77951535935
1.77951535934
1.77951535934
1.77951535938
1.77951536219
1.7795155122
1.779522323
1.77977726389
1.78727042311
1.95329541556
5.50609163912
130.258725656
1.77952219984
1.77952217179
1.77952217022
1.77952217014
1.77952217014
1.77952217014
1.77952217017
1.77952217299
1.77952232299
1.77952913364
1.77978407015
1.78727713286
1.95330089992
5.50609620073
130.258725907
1.77977708877
1.77977711043
1.77977711132
1.77977711125
1.77977711117
1.77977711138
1.77977711108
1.77977711379
1.77977726367
1.77978406917
1.78003884977
1.7875285002
1.953507508
5.5061127338
130.25872591
1.78726924446
1.7872702334
1.78727027973
1.78727027952
1.78727027793
1.78727027861
1.78727027542
1.78727027622
1.78727042482
1.78727711684
1.78752849772
1.79494339276
1.95992310624
5.50725047964
130.25872518
1.95328295858
1.95329492138
1.95329542194
1.95329541046
1.953295384
1.95329537985
1.95329534045
1.95329531405
1.95329548836
1.95330066742
1.95350750575
1.95992310735
2.11103697176
5.55895742378
130.258675731
5.50603705016
5.50609361998
5.50609457724
5.50609406295
5.50609354079
5.50609307402
5.5060925498
5.50609204145
5.50609539263
5.50609172337
5.50611506109
5.5072505095
5.55895269073
7.69336350431
130.256582401
130.258731456
130.258725584
130.258725585
130.258725597
130.258725625
130.258725639
130.258725653
130.258725667
130.258725676
130.258725918
130.258725916
130.258725154
130.258675739
130.256582401
130.250269459
1.90528201308
1.79243202102
1.78038528715
1.77955523471
1.77951659916
1.77951527264
1.77951523774
1.77951523953
1.7795153894
1.77952219838
1.77977708879
1.7872692651
1.95328316175
5.50603636394
130.258723296
1.78958417387
1.78053849376
1.77958208065
1.77951821966
1.77951530754
1.77951520902
1.77951520678
1.77951520958
1.77951535956
1.77952217032
1.77977711035
1.78727023725
1.95329501928
5.50609760586
130.258717795
1.78005601372
1.77956908057
1.77951862705
1.77951535549
1.77951520994
1.77951520517
1.77951520505
1.77951520789
1.77951535787
1.77952216879
1.7797771122
1.78727031705
1.95329582841
5.50609705108
130.258717803
1.77953615738
1.77951727995
1.77951533359
1.7795152105
1.77951520568
1.77951520501
1.779515205
1.7795152078
1.77951535781
1.77952216869
1.77977711125
1.7872702853
1.95329553868
5.50609833644
130.25871782
1.77951585569
1.77951526816
1.77951520878
1.77951520568
1.77951520505
1.77951520497
1.779515205
1.77951520781
1.77951535782
1.77952216872
1.77977711244
1.78727032754
1.95329589645
5.50609612112
130.258717838
1.7795152509
1.77951520795
1.77951520512
1.77951520498
1.77951520496
1.77951520496
1.77951520498
1.77951520781
1.77951535782
1.77952216871
1.77977711249
1.78727033075
1.95329605668
5.50609710193
130.258717857
1.77951523737
1.77951520677
1.779515205
1.779515205
1.779515205
1.77951520498
1.77951520503
1.77951520785
1.77951535785
1.77952216875
1.77977711238
1.78727032789
1.9532960146
5.50609711947
130.258717876
1.77951523957
1.77951520958
1.77951520789
1.7795152078
1.7795152078
1.77951520781
1.77951520785
1.77951521067
1.77951536067
1.77952217157
1.77977711472
1.78727032605
1.9532959235
5.50609484484
130.258717898
1.77951538941
1.77951535955
1.77951535788
1.7795153578
1.7795153578
1.77951535782
1.77951535785
1.77951536067
1.77951551069
1.77952232155
1.77977726374
1.78727042934
1.9532955344
5.5060945344
130.258717911
1.77952219836
1.77952217035
1.77952216879
1.77952216874
1.77952216873
1.77952216868
1.77952216875
1.77952217158
1.7795223216
1.77952913231
1.77978406979
1.78727713403
1.95330091372
5.5060961927
130.258714191
1.77977708834
1.77977711132
1.77977711221
1.77977711273
1.77977711243
1.77977711128
1.77977711238
1.77977711527
1.77977726498
1.77978407073
1.7800388524
1.7875285534
1.95350817853
5.50611797487
130.258714206
1.78726924461
1.78727027601
1.78727032034
1.78727033377
1.787270329
1.78727028841
1.78727032687
1.78727032935
1.78727046655
1.78727716733
1.78752850107
1.79494346916
1.9599232956
5.50725558025
130.258713418
1.95328295911
1.9532954542
1.95329583434
1.95329600378
1.95329586562
1.95329554593
1.95329586071
1.95329595134
1.95329580948
1.95330128513
1.95350753751
1.95992380846
2.11103706967
5.5589574145
130.258663998
5.50603701375
5.50609765358
5.50609672585
5.50609868461
5.50609601041
5.50609596075
5.5060951129
5.50609425272
5.50609535385
5.50609416458
5.50611502976
5.50725586448
5.55895497826
7.6933667945
130.256570897
130.258719677
130.258717761
130.258717765
130.258717775
130.258714153
130.258714166
130.258714187
130.258714208
130.258714227
130.258714173
130.258714207
130.258713415
130.258663995
130.256570898
130.25025745
1.78180916043
1.77975220048
1.77953087239
1.77951593784
1.77951525931
1.77951523722
1.7795152378
1.77951523969
1.77951538934
1.77952219831
1.77977708863
1.78726926338
1.95328311504
5.50603098162
130.258721126
1.7797011702
1.77953373355
1.77951638535
1.77951525784
1.77951520825
1.77951520713
1.77951520705
1.77951520951
1.77951535952
1.77952217027
1.77977710979
1.78727023012
1.95329488058
5.50609390228
130.258716072
1.77952457289
1.77951614068
1.77951526286
1.77951520734
1.77951520566
1.77951520541
1.77951520517
1.77951520782
1.77951535783
1.77952216875
1.77977711212
1.78727031629
1.95329580345
5.50609643206
130.258716011
1.77951557599
1.77951524053
1.77951520699
1.77951520559
1.77951520622
1.77951520518
1.77951520495
1.77951520776
1.77951535776
1.77952216865
1.77977711077
1.78727027855
1.95329537574
5.50609266696
130.258716158
1.77951524572
1.77951520764
1.77951520572
1.77951520622
1.77951520524
1.77951520492
1.77951520493
1.77951520777
1.77951535778
1.77952216869
1.77977711248
1.7872703288
1.95329588517
5.50609561652
130.258716074
1.77951523705
1.77951520724
1.77951520556
1.77951520512
1.7795152049
1.77951520488
1.77951520493
1.77951520774
1.77951535778
1.77952216866
1.77977711255
1.7872703324
1.95329605822
5.50609680366
130.258716113
1.77951523783
1.77951520709
1.77951520504
1.77951520494
1.77951520494
1.77951520493
1.77951520499
1.7795152078
1.77951535779
1.77952216869
1.77977711243
1.7872703297
1.95329602129
5.5060974884
130.258716199
1.77951523955
1.77951520952
1.77951520782
1.77951520775
1.77951520775
1.77951520775
1.77951520781
1.77951521063
1.77951536061
1.77952217151
1.7797771147
1.78727032774
1.95329592501
5.50609489547
130.258716249
1.77951538934
1.7795153595
1.77951535783
1.77951535776
1.77951535775
1.77951535777
1.77951535779
1.77951536061
1.77951551064
1.7795223215
1.77977726342
1.78727042706
1.95329550406
5.50609458497
130.258716288
1.77952219828
1.7795221703
1.77952216875
1.7795221687
1.77952216869
1.77952216862
1.77952216869
1.77952217154
1.77952232156
1.77952913227
1.77978406892
1.78727711859
1.95330067705
5.50609118933
130.258713943
1.77977708751
1.77977711132
1.77977711208
1.77977711275
1.77977711242
1.77977711089
1.77977711243
1.77977711537
1.77977726507
1.77978407087
1.78003885268
1.78752855579
1.95350818815
5.50611813624
130.258713959
1.78726923076
1.78727027571
1.78727031978
1.78727033468
1.78727032951
1.78727028448
1.78727032832
1.78727033134
1.78727046714
1.7872771696
1.78752850053
1.7949434834
1.95992327508
5.50725572656
130.258713136
1.95328269821
1.95329545351
1.95329581187
1.95329599575
1.95329585002
1.95329549812
1.95329585483
1.95329595245
1.95329578924
1.95330129259
1.95350749463
1.95992382752
2.1110368529
5.55895249214
130.258663714
5.50603041107
5.50609809169
5.5060961326
5.50609878619
5.50609552801
5.50609549254
5.50609473493
5.50609393659
5.50609091585
5.50609392489
5.50611212539
5.50725589034
5.55895485252
7.6933665469
130.256570676
130.258719331
130.258715618
130.258715664
130.2587157
130.258713897
130.258713914
130.258713939
130.258713964
130.258713992
130.258713941
130.258713966
130.258713137
130.258663706
130.256570676
130.250257152
1.77954484742
1.7795183645
1.77951544239
1.7795152451
1.77951523681
1.77951523667
1.77951523747
1.7795152397
1.77951539078
1.77952219962
1.77977708782
1.78726923928
1.95328290209
5.50603379754
130.258721746
1.7795176555
1.77951545225
1.77951522163
1.77951520714
1.77951520673
1.77951520716
1.77951520705
1.77951521018
1.77951536103
1.77952217171
1.77977711108
1.7872702707
1.9532953478
5.50609380879
130.2587167
1.77951535469
1.7795152182
1.77951520563
1.77951520507
1.77951520503
1.77951520542
1.77951520557
1.77951520853
1.77951535937
1.77952217015
1.77977711115
1.78727027824
1.953295393
5.50609429057
130.25871664
1.77951524024
1.77951520701
1.77951520507
1.77951520495
1.77951520506
1.7795152062
1.77951520612
1.7795152093
1.77951535929
1.77952217012
1.77977711242
1.78727032404
1.95329594639
5.50609493467
130.258715908
1.77951523665
1.77951520675
1.77951520503
1.77951520502
1.77951520613
1.77951520635
1.77951520564
1.77951520918
1.77951535928
1.77952217007
1.77977711126
1.78727028131
1.95329540846
5.50609298694
130.258716702
1.77951523657
1.77951520718
1.77951520554
1.77951520525
1.77951520623
1.77951520555
1.77951520584
1.77951520885
1.77951535917
1.77952216979
1.77977711101
1.78727027914
1.95329543775
5.50609521946
130.25871674
1.77951523662
1.77951520708
1.77951520539
1.7795152057
1.77951520639
1.77951520609
1.77951520649
1.77951520925
1.779515359
1.77952216971
1.77977711087
1.78727027988
1.95329546332
5.50609720856
130.25871595
1.77951523958
1.77951521019
1.77951520855
1.77951520928
1.77951520927
1.77951520894
1.77951520925
1.77951521208
1.77951536185
1.77952217281
1.77977711337
1.78727027554
1.95329530977
5.50609336215
130.258715998
1.77951539007
1.77951536102
1.77951535937
1.77951535926
1.77951535928
1.77951535917
1.77951535895
1.77951536184
1.77951551204
1.77952232276
1.77977726488
1.78727046622
1.95329591228
5.506093095
130.25871604
1.77952219964
1.7795221717
1.77952217012
1.77952217008
1.77952217006
1.77952216981
1.77952216974
1.77952217283
1.77952232278
1.77952913361
1.77978407067
1.78727716548
1.95330124908
5.50609307791
130.258725356
1.77977708905
1.77977711096
1.77977711066
1.7797771112
1.77977711096
1.77977711214
1.7797771109
1.77977711361
1.77977726393
1.77978406918
1.78003885183
1.78752852068
1.95350794949
5.50611801438
130.258725392
1.78726927892
1.78727025936
1.78727027502
1.78727027956
1.7872702754
1.78727031698
1.7872702741
1.78727027374
1.78727042894
1.78727711754
1.7875285518
1.7949434767
1.95992379102
5.50725534614
130.258724595
1.95328313004
1.95329539734
1.9532953642
1.95329561191
1.95329534408
1.95329580625
1.95329530799
1.95329527496
1.9532956519
1.95330066742
1.95350815442
1.95992355102
2.11103783076
5.55895642262
130.258675158
5.50603212898
5.50609758391
5.50609379363
5.50609799831
5.50609339446
5.50609218706
5.50609200535
5.50609137309
5.50609360642
5.50609129155
5.50611689755
5.50725470847
5.55895233835
7.69336284931
130.256581998
130.258730831
130.258716271
130.258716316
130.258716349
130.258725186
130.258725209
130.258725227
130.258725227
130.258725241
130.258725394
130.258725395
130.258724598
130.258675169
130.256581999
130.250268855
1.77951556319
1.77951527019
1.77951523863
1.77951523683
1.77951523689
1.77951523692
1.77951523749
1.77951523981
1.77951539077
1.77952219842
1.77977708882
1.78726927602
1.95328323131
5.50603407724
130.258722595
1.77951526228
1.77951521076
1.77951520714
1.77951520698
1.77951520698
1.77951520722
1.77951520718
1.77951521019
1.779515361
1.77952217042
1.7797771109
1.78727027453
1.95329536244
5.50609278472
130.258717462
1.77951523792
1.77951520704
1.77951520541
1.77951520532
1.77951520523
1.77951520553
1.77951520566
1.77951520854
1.77951535929
1.77952216889
1.77977711163
1.78727030387
1.95329563517
5.50609424997
130.258717433
1.77951523682
1.77951520701
1.77951520533
1.77951520515
1.77951520497
1.7795152058
1.77951520612
1.77951520928
1.77951535801
1.77952216879
1.77977711216
1.78727032887
1.95329597744
5.5060945461
130.258716657
1.77951523685
1.779515207
1.77951520521
1.77951520495
1.77951520579
1.77951520632
1.77951520565
1.77951520917
1.77951535853
1.77952216879
1.77977711174
1.78727032184
1.95329588817
5.50609569973
130.258717481
1.77951523682
1.77951520723
1.77951520561
1.77951520536
1.77951520623
1.77951520556
1.77951520584
1.77951520795
1.77951535793
1.77952216873
1.77977711207
1.78727032258
1.95329593829
5.50609544986
130.258717509
1.7795152366
1.77951520717
1.77951520549
1.77951520571
1.77951520638
1.77951520608
1.77951520641
1.77951520794
1.77951535788
1.77952216877
1.77977711195
1.78727031945
1.95329591311
5.50609698531
130.258716705
1.77951523975
1.7795152102
1.77951520856
1.77951520927
1.779515208
1.77951520789
1.77951520796
1.77951521071
1.77951536069
1.77952217159
1.77977711472
1.78727031626
1.9532956303
5.50609315748
130.258716741
1.77951539008
1.77951536101
1.77951535935
1.77951535923
1.77951535883
1.77951535795
1.77951535789
1.7795153607
1.77951551075
1.77952232158
1.77977726456
1.78727047064
1.95329594301
5.50609290295
130.258716768
1.77952219954
1.77952217047
1.7795221689
1.7795221688
1.77952216881
1.77952216872
1.77952216876
1.77952217163
1.77952232156
1.7795291323
1.7797840703
1.78727716838
1.95330125933
5.50609287547
130.258713955
1.77977708888
1.7797771106
1.77977711196
1.77977711091
1.77977711169
1.77977711205
1.77977711176
1.77977711497
1.77977726372
1.77978407061
1.78003885243
1.78752853704
1.95350794483
5.50611788808
130.258715313
1.78726927956
1.78727025944
1.78727032117
1.7872702798
1.78727031227
1.78727032853
1.78727032049
1.78727032346
1.78727043157
1.78727715907
1.78752855741
1.79494347366
1.95992380413
5.5072548767
130.258713083
1.95328311421
1.95329540061
1.95329591248
1.95329560502
1.9532956891
1.95329598533
1.95329572992
1.95329588316
1.95329568687
1.95330120106
1.95350820289
1.95992354495
2.11103798767
5.55895631367
130.258667822
5.50603161844
5.50609703562
5.50609411437
5.50609701243
5.50609350262
5.50609484466
5.5060926387
5.50609312086
5.50609340456
5.50609553951
5.50611679167
5.50725440653
5.55895676753
7.69336677039
130.256570536
130.2587193
130.258717241
130.258717267
130.25871729
130.258713785
130.258713797
130.25871382
130.258713838
130.25871384
130.258713873
130.258717995
130.258713079
130.258663639
130.256570532
130.250257166
1.77951527038
1.77951523871
1.77951523751
1.77951523771
1.77951523744
1.77951523772
1.77951523804
1.77951524068
1.77951539086
1.77952219839
1.77977708892
1.78726927774
1.95328323698
5.50603361092
130.258725675
1.77951523872
1.77951520921
1.77951520792
1.77951520762
1.77951520775
1.77951520793
1.77951520797
1.77951521103
1.77951536102
1.77952217035
1.77977710939
1.78727022495
1.95329480391
5.50609285102
130.258720555
1.77951523791
1.7795152079
1.77951520605
1.77951520605
1.77951520637
1.7795152062
1.77951520654
1.77951520938
1.77951535931
1.77952216886
1.77977711149
1.78727030206
1.95329561278
5.50609373969
130.258720513
1.77951523764
1.77951520758
1.77951520608
1.77951520631
1.77951520641
1.77951520582
1.7795152065
1.77951520931
1.77951535797
1.77952216872
1.77977711048
1.78727027478
1.95329531004
5.50609127337
130.258723417
1.77951523747
1.77951520781
1.7795152064
1.77951520644
1.77951520588
1.77951520639
1.7795152065
1.77951520925
1.77951535823
1.77952216877
1.77977711169
1.7872703223
1.95329589422
5.50609581843
130.258720568
1.77951523782
1.77951520796
1.77951520635
1.77951520642
1.77951520644
1.77951520646
1.77951520646
1.77951520786
1.7795153579
1.77952216871
1.77977711229
1.78727032819
1.95329598558
5.50609503603
130.25872059
1.77951523813
1.77951520802
1.77951520653
1.7795152065
1.77951520647
1.77951520647
1.77951520644
1.7795152079
1.77951535785
1.77952216875
1.77977711225
1.78727032637
1.95329596851
5.50609700503
130.25872345
1.77951524071
1.77951521105
1.77951520939
1.77951520931
1.77951520795
1.77951520783
1.77951520789
1.77951521068
1.77951536066
1.77952217156
1.77977711505
1.78727031655
1.95329561811
5.50609110081
130.258723504
1.7795153909
1.77951536105
1.77951535937
1.77951535929
1.7795153588
1.77951535792
1.77951535786
1.77951536066
1.7795155107
1.77952232152
1.77977726302
1.78727041951
1.95329535212
5.5060908303
130.258723528
1.77952219954
1.77952217044
1.77952216883
1.77952216877
1.77952216878
1.77952216866
1.77952216873
1.77952217158
1.77952232152
1.77952913223
1.77978406856
1.78727711317
1.95330059465
5.50609024414
130.258713763
1.77977708718
1.77977711093
1.77977711188
1.77977711049
1.77977711161
1.77977711062
1.77977711171
1.7797771151
1.77977726326
1.77978407064
1.78003885089
1.78752853935
1.95350774071
5.50611758438
130.258714766
1.78726922525
1.78727026676
1.78727032445
1.78727027288
1.78727031209
1.78727028158
1.78727032127
1.78727032601
1.78727042279
1.78727715895
1.78752849811
1.79494339388
1.95992305353
5.50724974741
130.258712935
1.95328261081
1.9532954104
1.95329592412
1.9532953001
1.95329567579
1.95329546068
1.95329572471
1.95329589409
1.95329544832
1.95330120403
1.95350746713
1.959923046
2.11103678635
5.55895162903
130.258667761
5.50602910329
5.5060966459
5.50609378564
5.50609201337
5.50609298107
5.50609471997
5.50609245988
5.5060930199
5.50609001801
5.50609557405
5.50611161896
5.50724962855
5.55895683501
7.69336666286
130.256570312
130.258719134
130.25872033
130.25872036
130.258720427
130.258713639
130.258713633
130.258713653
130.258713688
130.258713665
130.258713715
130.25871793
130.258712924
130.258663476
130.256570308
130.250256931
1.7795152684
1.77951523833
1.77951523659
1.77951523652
1.77951523652
1.77951523654
1.77951523681
1.7795152394
1.77951538941
1.77952219872
1.77977708873
1.78726927283
1.953283167
5.50603291252
130.258726339
1.77951523832
1.77951520836
1.77951520671
1.77951520664
1.77951520665
1.77951520664
1.77951520668
1.77951520951
1.77951535959
1.7795221715
1.77977711091
1.78727026886
1.95329530774
5.50609280997
130.25872087
1.77951523659
1.7795152067
1.77951520505
1.779515205
1.779515205
1.77951520504
1.77951520503
1.77951520786
1.779515358
1.77952217005
1.77977711053
1.78727027384
1.95329530856
5.50609132073
130.258720814
1.77951523652
1.77951520664
1.77951520499
1.77951520494
1.77951520501
1.77951520612
1.77951520503
1.77951520785
1.77951535907
1.77952217008
1.77977711201
1.78727032066
1.95329591828
5.50609545802
130.258723812
1.77951523652
1.77951520664
1.77951520499
1.77951520495
1.77951520569
1.77951520502
1.77951520498
1.77951520783
1.77951535793
1.77952216999
1.77977711183
1.78727031887
1.95329585765
5.50609553965
130.258720885