/*--------------------------------*- C++ -*----------------------------------*\
| =========                 |                                                 |
| \\      /  F ield         | OpenFOAM: The Open Source CFD Toolbox           |
|  \\    /   O peration     | Version:  2406                                  |
|   \\  /    A nd           | Website:  www.openfoam.com                      |
|    \\/     M anipulation  |                                                 |
\*---------------------------------------------------------------------------*/
FoamFile
{
    version     2.0;
    format      ascii;
    arch        "LSB;label=32;scalar=64";
    class       volScalarField;
    location    "0.01";
    object      p;
}
// * * * * * * * * * * * * * * * * * * * * * * * * * * * * * * * * * * * * * //

dimensions      [0 2 -2 0 0 0 0];

internalField   nonuniform List<scalar> 
29768
(
0
0
0.0506124952711
0.0687928329798
0.0646136853663
0.0691988091925
0.0687261203384
0.0700881770308
0.0702153924369
0.0707760030221
0.0709305141662
0.0711988586726
0.0712986391849
0.0713401978576
0.0713436447422
0
0.0493235967351
0.0746918036931
0.0649115430329
0.0694207978739
0.0689284573891
0.0696721590106
0.0702282866277
0.0704554309477
0.0708858505346
0.0710179150242
0.0712625385081
0.0713431640615
0.0713816045946
0.071382562478
0.0508006681338
0.0742206332217
0.0595868730834
0.0701397616292
0.0663100180642
0.0698075283997
0.0690798357132
0.0703790172788
0.0703510178074
0.0709191302033
0.0710125788881
0.0712810043251
0.0713613894726
0.0714042701911
0.0714068250889
0.0732217359439
0.0633225067642
0.0715561797129
0.0674912603496
0.0702099979508
0.0695140207272
0.0703587086196
0.0704976474526
0.0708147469084
0.0710510612167
0.0712061711405
0.0713741248221
0.0714521743086
0.0714762705399
0.0714782624994
0.0624031110263
0.06903956239
0.065826280919
0.0696293872837
0.06835199337
0.0701344389535
0.0698262892242
0.0706752591928
0.0706814832
0.0711143185337
0.0711901788492
0.071410154923
0.0714757110232
0.0715114970031
0.0715139257771
0.0711221061957
0.0682766209985
0.0706306734066
0.0693580446675
0.0705327110485
0.070262020587
0.0707813089823
0.0708700807282
0.0711162472993
0.0712704460152
0.0714017678652
0.0715199961402
0.0715848505714
0.0715995504223
0.0716019329182
0.0676091651865
0.0693261386566
0.0686799908806
0.0700294737209
0.0697168455708
0.0705520843996
0.0704949724918
0.070990487321
0.0710375895844
0.0713306300578
0.0713995973132
0.0715613796884
0.0716145607873
0.0716406922667
0.0716431209629
0.0707025402634
0.0699316191128
0.0707279715759
0.0703726465298
0.0708746623304
0.0708314951618
0.0711162267444
0.0712071345711
0.0713713615815
0.0714856199508
0.0715836410542
0.0716699902506
0.0717197283076
0.0717290274522
0.071731270196
0.0696699404053
0.0702028755949
0.0700829203834
0.0706015235335
0.0705662007567
0.0709669114308
0.0709997721219
0.0712839944958
0.0713452217801
0.0715354406265
0.0715964552628
0.0717094010707
0.0717517450599
0.0717692662545
0.0717714956725
0.0709237957893
0.0707211650534
0.0710215583128
0.0709554649064
0.0711823542818
0.0712222180829
0.0713795914034
0.0714669049137
0.0715742711753
0.0716637839007
0.0717350132343
0.0718005257513
0.0718380771076
0.0718445775433
0.0718465483042
0.0706398340252
0.0708370838057
0.0708353558054
0.0710587329392
0.0710924712982
0.0712966960929
0.0713520918469
0.0715185962198
0.0715791866116
0.0717022954175
0.0717549888424
0.0718328938683
0.0718665040624
0.0718777594809
0.071879753432
0.0711701530969
0.0711430371629
0.0712637313994
0.071289992769
0.0714009350712
0.0714662548452
0.0715595955309
0.0716398536958
0.0717139797742
0.0717879322396
0.071841979031
0.0718949096278
0.0719247235327
0.0719307109228
0.0719326638256
0.0711320884949
0.0712080531291
0.0712435724473
0.07134455856
0.0713990115392
0.0715072108041
0.0715690713985
0.0716696056105
0.0717284955955
0.0718103716553
0.0718579734578
0.0719135482121
0.0719421121092
0.0719521271813
0.0719540499326
0.0712350629826
0.0712734665867
0.0713277523287
0.071393250321
0.0714601727151
0.0715411432499
0.071609920138
0.0716921864847
0.0717540885913
0.0718249765875
0.0718732966811
0.0719235297805
0.0719536786792
0.071975959273
0.0719807174556
0.0712188700042
0.0712671985791
0.0713146497095
0.0713882242916
0.0714510611337
0.071537433223
0.0716042448913
0.0716896356771
0.071750831336
0.0718233500131
0.0718715625146
0.0719227106968
0.0719527969742
0.0719782075625
0.0719877747254
0
0
0.0498697722651
0.0717020097887
0.0634389936584
0.0694330571617
0.067339029754
0.0694149054455
0.0688174730576
0.0697107557903
0.0695448173796
0.0699514815093
0.0699343431375
0.0700124854699
0.0699997451831
0
0.0486335250816
0.0788449521076
0.0653533728153
0.0696007175072
0.0687281210134
0.0687466910739
0.069494453649
0.0692052673798
0.0698248266198
0.0696802806555
0.0700241955878
0.0699929074299
0.070060406663
0.0700457438013
0.0498830748346
0.0771410110907
0.0582741110989
0.0710928910257
0.0646322197208
0.0695960992472
0.0675130944151
0.0695522784995
0.0688824600487
0.0697945198556
0.069599705343
0.0700106355913
0.0699868741639
0.0700678138107
0.0700558501723
0.0781513660679
0.0643225494151
0.0734984052919
0.0675255472158
0.0702478228606
0.0690283006158
0.0695157512214
0.0696351730488
0.0696317905888
0.0699434641722
0.0699026383497
0.0701238588004
0.0701148504382
0.0701574527769
0.0701472167124
0.0609801287494
0.0687062913391
0.0639958328696
0.0692085796942
0.0666259694715
0.0693541326406
0.0682549401531
0.0696236889606
0.0692098540283
0.0699009062246
0.0697741613373
0.0701069687557
0.0700972836857
0.0701652017634
0.0701568066176
0.0724783773435
0.0683257537577
0.0710961492203
0.0689607427148
0.0700993692909
0.0695210751553
0.0698294780709
0.069872889051
0.0699198851096
0.0701015582339
0.0701029319139
0.0702477536115
0.0702515137826
0.0702777346495
0.07027167612
0.065845431486
0.068273878065
0.0669499938388
0.0690020120692
0.0681015516357
0.069438259514
0.0689827153088
0.0697792289803
0.0695913977309
0.0700465144316
0.0699931955932
0.0702309957215
0.0702373866776
0.0702873305709
0.0702828150251
0.0706106316913
0.0693799142368
0.070285925051
0.0696073061722
0.0700442758429
0.0698679885159
0.0700200598437
0.0700866586391
0.0701293538495
0.0702561780139
0.070272751781
0.0703734624157
0.070384078723
0.0704013531209
0.0703984969611
0.0680703887711
0.0689317647045
0.0685188876384
0.0693544180283
0.069062116689
0.0697036130209
0.0695476427053
0.0699887654967
0.0699286253408
0.070210354283
0.0702039071143
0.0703632569124
0.0703794275527
0.0704133805078
0.0704117697802
0.0701292976612
0.0697897709289
0.070095118526
0.0699272815006
0.0700954027535
0.0700919639601
0.0701681850081
0.0702505569562
0.0702863411334
0.0703852775581
0.0704080962231
0.0704832483931
0.0704978869223
0.0705108581774
0.0705101905154
0.0691768862143
0.0695137552503
0.0693865743399
0.0697451550429
0.0696665304434
0.0699795695434
0.0699468102738
0.0701897413863
0.0701894234751
0.0703607490652
0.0703775852075
0.0704821206684
0.0705018091759
0.0705239418922
0.0705240044957
0.0700390723307
0.0699881242445
0.0700864485561
0.0700955307852
0.0701634512562
0.0702260712083
0.0702711277614
0.0703587231745
0.0703917100769
0.070475968699
0.0705021879482
0.0705636867365
0.0705808126158
0.0705926039258
0.070593286257
0.0697619632481
0.0698912731515
0.0698738748812
0.0700262710706
0.0700311271529
0.0701831762549
0.0702030923321
0.0703373204413
0.0703647468397
0.0704701866757
0.0704977851348
0.070567813746
0.0705876521045
0.070603974581
0.0706044239452
0.0699465112503
0.0700050312325
0.070027518329
0.0701118984836
0.0701438724502
0.0702431276918
0.0702788657566
0.0703778323003
0.0704128974374
0.0704974603399
0.0705275273749
0.0705873402442
0.0706083725744
0.070635594058
0.0706390690703
0.0698975185801
0.0699750598157
0.069987196348
0.0700884211792
0.0701155028912
0.0702268651099
0.0702612837549
0.0703677691687
0.0704031595453
0.0704919607181
0.070522668707
0.0705847146942
0.0706056874509
0.0706362995951
0.0706434072505
0
0.0468925339753
0.066075049544
0.0622742376416
0.0654859932696
0.0654580292918
0.066194781043
0.066606713036
0.0668749482735
0.0672007582846
0.0673443845687
0.0675421645614
0.0676228706759
0.0676510876897
0.0676513911066
0.0469138414304
0.0730910626999
0.0637461339105
0.066204660763
0.0657803794352
0.0661940366812
0.0664800763909
0.0668228533651
0.067015748662
0.0672973379721
0.0674147364182
0.0675950306123
0.0676627680593
0.0676874923075
0.0676863300744
0.0681204628562
0.063108248909
0.0654009555843
0.0648939991584
0.0655735471797
0.0660827057282
0.0663296725567
0.06682777646
0.0669699695324
0.0673091291469
0.0674120180486
0.0676086063182
0.0676764244548
0.0677057300881
0.0677056774527
0.0617850751601
0.0657765691238
0.0651324492686
0.0660487125327
0.0662655158744
0.0665539346113
0.0668219532635
0.0670629549507
0.067237781295
0.0674446067865
0.0675526904036
0.0676926021022
0.0677523044457
0.0677694862337
0.0677688713196
0.0656964699524
0.0653977587094
0.0655285503166
0.066006692895
0.0660396052218
0.0666113823197
0.066666008313
0.0671056407528
0.0671807519421
0.0674728394798
0.0675466381213
0.0677161139481
0.0677704818832
0.0677963657637
0.0677965108383
0.0653873073081
0.0658778179654
0.0662365628919
0.0664543451615
0.0667737351215
0.0669309564181
0.0671557841127
0.0673238186542
0.0674671190308
0.0676182298382
0.0677085273534
0.0678139630355
0.067862916057
0.0678744914268
0.0678745740531
0.0659395565659
0.0662262252264
0.0661773551047
0.0666237011659
0.066605264351
0.0670238478094
0.0670540925435
0.0673758023915
0.0674314757355
0.067652472453
0.0677105940219
0.067842323225
0.0678855548697
0.0679056865519
0.0679062625324
0.0666154856411
0.066627624799
0.0669010575143
0.0669672426039
0.0671856667749
0.0672912629142
0.0674467282304
0.0675707563764
0.0676763118177
0.0677889262854
0.0678589522481
0.067938173483
0.0679764089782
0.067984382274
0.0679849544023
0.0666072495942
0.0668302078251
0.0668075924952
0.0670878938686
0.0670978290739
0.067363000346
0.0674008142194
0.0676158684532
0.0676661169455
0.0678217928125
0.0678702064648
0.0679665064746
0.068000734672
0.0680150383042
0.0680159267566
0.0671727250855
0.0671679001369
0.0673131774456
0.0673635672886
0.0674902449947
0.067575456607
0.067675377784
0.0677719673566
0.067846815186
0.0679331854206
0.0679862552691
0.0680468681544
0.0680764384501
0.0680824138412
0.0680832841475
0.0671422254075
0.0672711840295
0.0672763393121
0.0674367447175
0.0674653320004
0.0676257171732
0.067668584079
0.0678076694063
0.0678542779541
0.067960999591
0.0680023042269
0.0680710791675
0.0680982164208
0.0681079311873
0.0681089679494
0.0674692969886
0.0674917699153
0.067562517424
0.0676177572221
0.0676899669671
0.0677653559541
0.0678308685071
0.0679107421584
0.0679655114666
0.0680353982061
0.068076893319
0.0681259064694
0.0681496743015
0.0681554478203
0.0681566045849
0.0674807767576
0.0675465065095
0.0675720088075
0.0676597167618
0.0677000970952
0.0677959280283
0.0678427079972
0.067933088162
0.0679783668175
0.0680526145059
0.0680898349358
0.0681403491661
0.0681631195929
0.0681722431946
0.0681732929261
0.0675449036289
0.0675897201061
0.0676275350381
0.067694116903
0.0677434135658
0.0678214314884
0.0678735627468
0.0679509927226
0.0679987732743
0.0680647729608
0.0681026173381
0.0681490929999
0.0681731724587
0.0681936494626
0.0681972862481
0.0675327788893
0.0675828116203
0.0676168309762
0.0676880419621
0.0677351612368
0.067816693759
0.0678678918997
0.0679476525769
0.0679952159544
0.0680626382743
0.0681005303863
0.0681479058182
0.0681718189757
0.0681951926152
0.0682028424983
0.0465823419975
0.0677535122254
0.0596782334267
0.0661742196047
0.0632585812841
0.0657853147407
0.0647609103051
0.0659114939308
0.0655445209356
0.0661227987466
0.0660046163973
0.0662886215926
0.0662714554151
0.0663247361996
0.0663133310026
0.0698125119608
0.0670095212739
0.0654909469806
0.0660931883301
0.0648822762565
0.0659577438368
0.0652627441413
0.0660546565804
0.0657267443367
0.0662106675976
0.0660846952939
0.0663411669382
0.0663135894295
0.0663614635853
0.06634878894
0.0575425207974
0.0646952944467
0.0610895719479
0.0654894844611
0.0634760549222
0.0657051211961
0.0648187605934
0.0659398664298
0.0655897983594
0.0661647601519
0.0660487534429
0.0663297988977
0.0663141027739
0.0663685431967
0.0663581836024
0.067903594624
0.0660230375019
0.0663655282846
0.0659143898121
0.0657613645963
0.0660056232451
0.065779873558
0.066155804501
0.0660067881373
0.0663067152786
0.0662405469742
0.0664218143773
0.0664067754097
0.0664392325473
0.0664294886395
0.0616664701638
0.064463735626
0.0630474145019
0.0652844570943
0.0643090246745
0.0657077595563
0.0652023826343
0.0660118822911
0.0657915030571
0.0662441108715
0.0661706412572
0.0664031104614
0.0663981345182
0.0664445898324
0.0664370563521
0.0667220212336
0.0659493277931
0.0662886124941
0.066009429153
0.0660595947556
0.0661378902891
0.0660837199971
0.0662841284222
0.0662297477817
0.0664179768313
0.0663924636889
0.0665170592728
0.0665131107131
0.0665341210788
0.0665277531203
0.063863076017
0.0649994993713
0.0644411490853
0.0654988255934
0.0650919707331
0.0658677085669
0.0656371408223
0.066147808902
0.0660437119418
0.0663575448875
0.0663273879329
0.0664991922688
0.0665049414996
0.0665399349693
0.0665354798661
0.0663256327342
0.0660651561756
0.0662428118837
0.0661603222173
0.0662157719947
0.0662839003943
0.0662820531434
0.066412985748
0.0664017518863
0.066528222379
0.0665258451134
0.0666133249161
0.06661720245
0.0666312951297
0.0666277925578
0.0650551847377
0.0655498774728
0.0653299804762
0.065831923514
0.065678741996
0.0660937683259
0.0660083840835
0.0663133552879
0.066279729134
0.0664843617741
0.0664826774845
0.0666021164244
0.0666143254958
0.0666387191723
0.0666366342296
0.0662624160938
0.0662081494246
0.0662855754569
0.0663000022814
0.0663358908879
0.0664101506352
0.0664235173572
0.0665229139824
0.066531031992
0.0666232734459
0.0666332058988
0.0666979117371
0.0667067479399
0.0667172722937
0.0667158194365
0.0657373129506
0.0659635894121
0.0658840208765
0.0661290013048
0.0660827178472
0.0663056826122
0.0662875037654
0.0664676591883
0.0664695592677
0.0666005580724
0.0666135440134
0.0666949315076
0.0667093720699
0.0667257385739
0.0667250672172
0.066290598212
0.0663142733828
0.0663434501007
0.0663975087655
0.0664198837652
0.0664973381417
0.0665156174458
0.0665998525864
0.0666170524131
0.0666913705103
0.0667077401189
0.0667600285888
0.0667716865082
0.066781282484
0.0667810914874
0.0661289472414
0.0662313177495
0.0662165898203
0.0663361521198
0.0663384063289
0.0664589555558
0.0664725059632
0.0665803330908
0.066599632016
0.0666851616483
0.0667049126237
0.0667619195406
0.0667761585955
0.0667890497658
0.0667886969026
0.0662508105268
0.0663119432304
0.0663194445123
0.0663983967375
0.0664154863985
0.0665032489234
0.0665254997736
0.0666105529929
0.0666340507433
0.0667056816925
0.0667266551977
0.0667768849174
0.0667920085599
0.0668146467004
0.0668167892082
0.0662158648727
0.0662869498547
0.0662900957428
0.0663784440174
0.0663941882608
0.0664891694075
0.0665117717928
0.0666016249579
0.0666260363336
0.066700567118
0.0667222928324
0.0667741603013
0.0667892307306
0.0668146843615
0.066819810345
0.0617556845197
0.0619584838048
0.0624942096369
0.0625337530967
0.0628840652762
0.0631506097726
0.0633411703355
0.0636057912108
0.0637223477825
0.0639249395629
0.0640040941072
0.0641317556029
0.0641803234067
0.0641954974747
0.0641943933344
0.0619820682962
0.0629412455045
0.062698914922
0.0630141290112
0.0631317851143
0.0633531960559
0.0634909516817
0.0637055592689
0.0638052786393
0.0639819606087
0.0640514746671
0.0641677036967
0.0642102129944
0.064222828529
0.064221166318
0.062796894344
0.0624984202136
0.0627575034019
0.0628839531913
0.063048838953
0.0633309020469
0.0634424225219
0.0637078607971
0.0637909139065
0.0639902214523
0.0640547745849
0.0641786656778
0.0642217116729
0.0642371726672
0.0642360646365
0.0623730656711
0.0629093592906
0.0629328543805
0.0632434941122
0.0633435950371
0.0635610703521
0.063665484179
0.0638498488245
0.0639327625482
0.064080085675
0.0641409541223
0.0642383928118
0.0642752207168
0.0642846938573
0.064283342579
0.0629022286264
0.0629739377348
0.063021242211
0.0632530433295
0.0632999726456
0.0635727639263
0.0636262094733
0.0638641102152
0.063919549575
0.0640954523704
0.0641458635162
0.0642548776629
0.0642908142641
0.06430487149
0.0643041109627
0.0630477329779
0.0632401569422
0.06333670817
0.063517617022
0.0636181782518
0.0637791800507
0.0638667962193
0.0640109557221
0.0640799517798
0.0641967870099
0.0642480550026
0.0643260569023
0.0643565616209
0.0643635897023
0.0643627498788
0.0632113385711
0.0633653550158
0.0633607376352
0.0635741308384
0.0635903621064
0.063810661732
0.0638446390887
0.0640336483858
0.0640756800848
0.0642168114599
0.064257417355
0.0643458276288
0.0643751047949
0.0643866917863
0.0643863610184
0.0635325454093
0.06360976164
0.0636893773803
0.0637963058637
0.0638749644909
0.0639900845722
0.0640583567978
0.0641678514279
0.0642230624228
0.0643136278445
0.0643553886261
0.0644164346341
0.0644410520613
0.0644464020827
0.0644460601758
0.0635736601556
0.0636977834949
0.063692580757
0.0638487527282
0.0638643475456
0.0640233714059
0.0640534795692
0.0641924138611
0.0642283367238
0.0643347071544
0.0643686017972
0.0644365580771
0.064460187333
0.0644690496904
0.0644690804316
0.0638520136536
0.0638998810745
0.0639506483873
0.064024874718
0.0640794932238
0.0641654681842
0.064216298532
0.0643005144981
0.0643438764175
0.0644145272461
0.064448264325
0.0644963206132
0.0645162097471
0.0645206414356
0.0645207013859
0.0638713192096
0.0639559398847
0.0639600382119
0.0640650092442
0.06408531378
0.0641943838055
0.0642242855178
0.0643228715675
0.0643553996923
0.0644334760709
0.0644625634936
0.064513805105
0.0645329123433
0.0645395319581
0.0645397949374
0.0640491494991
0.0640909291759
0.0641211988654
0.0641813591343
0.0642187795532
0.0642880565047
0.0643264882416
0.0643946103534
0.0644295610069
0.064487153316
0.0645151989127
0.0645548807205
0.0645715822217
0.0645762156585
0.0645766225444
0.0640699175607
0.064122954539
0.0641380703079
0.0642062196043
0.0642325472001
0.0643068018953
0.0643385086324
0.0644090818454
0.0644405252988
0.0644989914104
0.0645253348182
0.0645653417648
0.0645816388465
0.064588757434
0.0645890553303
0.0641013106146
0.0641451680781
0.0641662452203
0.064224901239
0.0642557264218
0.064321475921
0.064356010524
0.0644199803312
0.06445279767
0.0645068496321
0.064533509092
0.0645714108757
0.064588775289
0.0646054047448
0.0646077424026
0.0640938930819
0.0641397338455
0.0641593740572
0.0642199605679
0.0642500688845
0.0643174719394
0.0643518217269
0.0644170443447
0.0644499487298
0.0645048831321
0.0645316639573
0.0645702163736
0.0645873891451
0.0646063639922
0.0646118863741
0.059981277614
0.061834681008
0.06080627592
0.0621718705489
0.0615278175472
0.0623707032846
0.0620418535518
0.0625519650147
0.0624050717689
0.0627081570537
0.0626567892145
0.0628203371106
0.0628143805617
0.0628449736489
0.0628378949221
0.0616291464513
0.062252725023
0.0615918955218
0.0623699748042
0.0618532810006
0.0624899158131
0.0621840115063
0.0626261525302
0.0624753729439
0.0627549309354
0.0626968257773
0.0628514169635
0.0628407083329
0.0628693140003
0.0628617025959
0.0601827871926
0.0616254120862
0.0608800731194
0.0620831880324
0.06155847249
0.0623616856286
0.0620736008691
0.0625725093083
0.0624399060391
0.0627370378605
0.0626910376466
0.0628508493796
0.0628471554867
0.0628779430973
0.0628715807509
0.0622473486936
0.0624159126797
0.0621859956472
0.06249787434
0.0622618744065
0.0626014336057
0.0624342168727
0.0627185748273
0.0626264482107
0.06282870431
0.0627915934061
0.0629114576274
0.0629048448534
0.0629260292178
0.0629198191162
0.0609615986012
0.0618064566628
0.0613772368622
0.0621587280294
0.061846047155
0.0624277905769
0.0622457611065
0.0626369287342
0.0625509749081
0.0627962376005
0.0627685735906
0.0629047416371
0.0629063702911
0.0629331801853
0.0629284263436
0.0624562440398
0.0625314343565
0.0624587009386
0.062612573471
0.0625164844085
0.0627102477108
0.0626320975312
0.0628145688098
0.0627687236563
0.0629100984192
0.0628927082243
0.0629814313565
0.062980076625
0.0629950259507
0.0629906957857
0.0616512072339
0.0621091653479
0.061887568892
0.0623425139482
0.0621849119633
0.0625575168349
0.0624652880617
0.0627375797214
0.0626960529124
0.0628779177739
0.0628688410303
0.0629743840586
0.062980992621
0.0630019861368
0.062998998083
0.0625872371802
0.0626469757994
0.0626233235674
0.0627236804967
0.0626882247403
0.0628135520266
0.0627833001216
0.0629063906994
0.0628898660064
0.0629898671356
0.0629866730991
0.0630520314314
0.0630552254781
0.0630659304857
0.0630633613371
0.0621526727719
0.0623985229075
0.0622929873705
0.0625499983106
0.0624809520955
0.0627085113158
0.0626720426185
0.062851363976
0.0628396225971
0.0629670714139
0.0629708614537
0.0630483813256
0.0630579594701
0.0630733400976
0.0630717742463
0.0626963462683
0.0627519979997
0.0627435302636
0.0628210433186
0.0628112873003
0.062902033633
0.062895915085
0.0629849063082
0.0629851283897
0.0630589596849
0.0630646533161
0.063114290264
0.0631207068908
0.0631289836313
0.0631277550623
0.062494260238
0.0626284325391
0.0625838658954
0.0627302290728
0.0627069222131
0.0628452960201
0.0628386887132
0.0629553617657
0.0629601458975
0.0630481108756
0.0630588452882
0.063114958078
0.0631254146659
0.0631364171324
0.0631357278319
0.0627740956286
0.062826959232
0.0628235861884
0.0628898078537
0.0628912105508
0.0629643575982
0.0629701691527
0.0630407587536
0.0630500485497
0.0631090261442
0.0631197904188
0.0631603203052
0.0631686359981
0.0631762002698
0.0631758077251
0.062709391404
0.062783732298
0.0627718918899
0.0628571095334
0.0628576532646
0.0629439159646
0.0629528899184
0.0630309461711
0.0630442908073
0.0631069385847
0.0631208044049
0.0631629748535
0.0631730115297
0.0631825184727
0.063181971988
0.0627729731832
0.0628286403121
0.0628267018809
0.0628931363007
0.0629000983743
0.0629705943705
0.0629832294992
0.0630498599268
0.0630648669416
0.0631202952678
0.0631344577855
0.0631731131565
0.0631836825435
0.0632010363638
0.0632022941273
0.0627543960694
0.0628137977369
0.0628107273239
0.06288100471
0.062888087024
0.0629617890915
0.0629751478256
0.0630441125919
0.0630599143528
0.0631168886993
0.0631315802311
0.0631711976029
0.0631816430962
0.0632010863209
0.0632046577541
0.0597795598498
0.0599667152747
0.0599703023979
0.0601556891981
0.060193818133
0.0603757119156
0.0604212245324
0.0605777363851
0.0606212734066
0.0607399868913
0.0607773064215
0.0608525698575
0.0608776045966
0.0608851534093
0.0608841427412
0.0599620303992
0.0601048767904
0.0601208348906
0.0602615906746
0.0603016693977
0.0604457381279
0.0604899352015
0.0606239213223
0.0606641836668
0.0607712948383
0.0608051988192
0.060874944382
0.0608974433835
0.0609037554096
0.0609025030431
0.0599765734404
0.0600884087497
0.0600934993976
0.0602518138472
0.0602759847782
0.0604454570052
0.0604791658419
0.0606287432335
0.0606647163979
0.0607788703497
0.060811840103
0.0608841590968
0.0609072358799
0.0609148023154
0.0609138005058
0.0600967338316
0.060232100317
0.0602451331805
0.0603843380079
0.0604145726354
0.0605469414711
0.0605834969659
0.0607014329273
0.0607368337182
0.060830288353
0.0608606816515
0.0609216714552
0.0609415360785
0.0609466109684
0.060945478594
0.0601469643447
0.0602575271479
0.0602492058223
0.0603943329919
0.0604045468611
0.0605553003402
0.0605784495295
0.0607111233238
0.0607399355658
0.0608415198874
0.0608696719207
0.0609341900949
0.060954411218
0.0609614278795
0.0609606243277
0.0603095709618
0.0604022705112
0.0604200055465
0.0605277215594
0.0605564096862
0.0606639255549
0.0606963537301
0.0607934755022
0.0608246492221
0.0609022367283
0.060928849823
0.0609797974799
0.0609967950395
0.0610008436897
0.0609999878529
0.0603390860903
0.0604382177645
0.0604276869217
0.0605488241821
0.0605555824504
0.0606790833188
0.0606979542232
0.0608071050855
0.0608315684668
0.0609159926649
0.060940146998
0.0609942101675
0.0610114250439
0.0610174573603
0.0610169216868
0.0605114145965
0.0605753781919
0.0605919155318
0.0606717547882
0.0606969327229
0.060780576698
0.0608086973228
0.0608860731494
0.0609131194721
0.0609757825533
0.0609987260798
0.061040227473
0.0610545654022
0.0610578808158
0.0610573437409
0.0605293308574
0.0606071886531
0.0606014821702
0.0606944159578
0.0607029853002
0.06079796954
0.0608159844677
0.0609011662435
0.0609231497894
0.0609901512629
0.0610111560518
0.0610546435823
0.0610690878979
0.0610740023865
0.0610737169437
0.0606718279856
0.0607200183004
0.0607332634113
0.0607942987884
0.060815207682
0.0608807181593
0.0609046949599
0.0609663870419
0.0609897630666
0.061040401157
0.0610601964082
0.0610941086552
0.061106282802
0.0611092551982
0.0611090098104
0.0606881009983
0.0607454231604
0.0607461319105
0.0608145360923
0.0608261278547
0.0608971106833
0.0609153745576
0.0609804559907
0.0610008906996
0.0610532458143
0.0610718040874
0.0611064706392
0.0611185628344
0.0611226291221
0.0611225173674
0.0607810710287
0.0608208622916
0.0608313688293
0.060881062504
0.0608986291551
0.0609523082984
0.0609731585247
0.0610242617057
0.0610449221277
0.061087401121
0.0611048868779
0.0611338421745
0.0611445178853
0.0611479282964
0.061147923937
0.0607951832758
0.0608365126335
0.0608436497847
0.0608940184469
0.060909115459
0.0609628955101
0.0609822722514
0.0610331245726
0.0610530166258
0.0610951627381
0.061112185372
0.0611410366354
0.0611516438188
0.0611568017086
0.0611566931238
0.0608095655183
0.0608470024664
0.060856703476
0.0609030799183
0.0609201168683
0.0609702523268
0.0609908631694
0.0610388043512
0.0610592861425
0.0610994728663
0.061116607078
0.06114468283
0.0611561121597
0.0611684102294
0.0611697288217
0.0608053453055
0.0608434880434
0.0608527255876
0.0608998622254
0.0609167386397
0.060967607903
0.0609882415697
0.06103680529
0.0610573952876
0.0610980758187
0.0611152820107
0.0611437709276
0.0611550044102
0.0611690172915
0.0611726481914
0.0585086895798
0.0589016945845
0.0586778777136
0.0590539250392
0.0588900018465
0.0591889136649
0.0590921759103
0.059309327295
0.059263203175
0.0594090876524
0.0593948962382
0.0594800393912
0.059481659084
0.0594973729692
0.0594939458864
0.0586709667776
0.058992524814
0.0587886436674
0.0591141047399
0.05895675438
0.0592312050336
0.0591335243998
0.059339631143
0.0592907195388
0.0594313602546
0.059414742824
0.0594972965726
0.0594973807375
0.0595125305428
0.0595089743763
0.0585200736869
0.0588952159443
0.0586959374448
0.0590577422104
0.0589135757165
0.059204251154
0.0591188273388
0.0593303724042
0.0592900197846
0.0594318777014
0.0594203315816
0.059503011021
0.0595057477029
0.059521398976
0.0595184114093
0.0589396691465
0.059132643018
0.0590102004116
0.059218436707
0.0591183287335
0.0593109543621
0.0592450766803
0.0594015890746
0.0593675221728
0.0594805293844
0.0594693985451
0.0595381751123
0.0595390018062
0.0595511831954
0.0595482359145
0.0587086404262
0.0589859565652
0.0588461785276
0.0591229760423
0.0590246286027
0.0592581467549
0.0592005145285
0.0593773924439
0.0593515158942
0.0594735372198
0.0594683761964
0.059540892679
0.0595455659743
0.0595595269379
0.059557173288
0.0591234964841
0.0592454837704
0.0591781607983
0.0593136765894
0.0592580694478
0.0593907866994
0.0593537109711
0.0594680363422
0.0594495427734
0.0595361365771
0.0595317559967
0.059586332449
0.0595887751322
0.0595981313751
0.0595959440427
0.058937118887
0.0591213757149
0.0590364638294
0.0592266024925
0.0591702197755
0.0593391790112
0.0593083891406
0.0594427936559
0.0594315933122
0.0595280167537
0.0595294100356
0.0595884091174
0.0595948280534
0.0596062477849
0.0596047045439
0.059258658883
0.0593412412269
0.0593059354251
0.0593987270233
0.0593714463786
0.0594649979986
0.059448311647
0.0595319449524
0.0595256339278
0.0595912608125
0.0595926701356
0.0596353072325
0.0596394574095
0.059646672456
0.0596453278553
0.0591417452997
0.0592595562618
0.0592134826905
0.059338726543
0.0593115345437
0.0594281626543
0.0594165288144
0.0595138435479
0.0595133960999
0.0595861326102
0.05959225337
0.0596382403441
0.0596456344316
0.059654515045
0.0596536640634
0.0593593570821
0.0594192052324
0.0594016828968
0.0594692573692
0.0594584903361
0.0595275584892
0.0595236168037
0.0595867617305
0.059588599434
0.0596394187435
0.0596449160187
0.0596788183963
0.0596842899896
0.0596901661175
0.0596894939955
0.0593012531285
0.0593768144106
0.0593549784782
0.0594375566039
0.0594280839073
0.0595082494026
0.0595082006869
0.0595781364273
0.0595841244334
0.0596385449572
0.0596472355234
0.0596828553374
0.0596903352572
0.05969720457
0.0596967785285
0.0594261006859
0.0594732732412
0.0594652089359
0.0595186807706
0.0595169473469
0.0595719770985
0.059575337577
0.0596263381668
0.0596330443245
0.059674841321
0.0596827948147
0.0597113561959
0.0597175541211
0.0597230559851
0.0597227904113
0.0594086042818
0.059458930926
0.0594513953216
0.0595080868752
0.0595087158333
0.0595660512101
0.059572410639
0.0596247104837
0.059634049335
0.0596764558024
0.0596861017697
0.0597149415003
0.0597218743257
0.0597284713144
0.0597280392233
0.0594370559485
0.0594802855287
0.0594764610672
0.059525891954
0.0595288623579
0.0595798863544
0.0595874722698
0.0596350366625
0.0596448218447
0.0596841576121
0.0596937121512
0.0597211138713
0.0597283746722
0.0597406817207
0.059741432946
0.0594289005316
0.0594733815919
0.0594693395768
0.059520263811
0.0595234367271
0.0595756316661
0.059583637667
0.0596321960759
0.0596423800059
0.0596824431485
0.0596922164598
0.0597201216311
0.0597271941611
0.0597409333414
0.0597433603163
0.0571238887046
0.0572149972185
0.0571994797871
0.0572993039025
0.0573017336013
0.0573985561456
0.0574117156592
0.0574959510108
0.0575136531023
0.0575786626366
0.0575962448088
0.0576377877829
0.057650037999
0.0576539935887
0.0576533080433
0.0571872025785
0.0572596354893
0.0572534754917
0.057336915035
0.057342786348
0.0574277867451
0.0574411368175
0.0575180322959
0.0575346179702
0.0575954494973
0.0576117282151
0.0576510977842
0.0576623617217
0.0576658273972
0.0576650206537
0.0571821449187
0.0572614628152
0.0572479914332
0.0573395839213
0.0573408989432
0.0574322768132
0.0574435320103
0.0575240183056
0.0575400218252