/*--------------------------------*- C++ -*----------------------------------*\
| =========                 |                                                 |
| \\      /  F ield         | OpenFOAM: The Open Source CFD Toolbox           |
|  \\    /   O peration     | Version:  2406                                  |
|   \\  /    A nd           | Website:  www.openfoam.com                      |
|    \\/     M anipulation  |                                                 |
\*---------------------------------------------------------------------------*/
FoamFile
{
    version     2.0;
    format      ascii;
    arch        "LSB;label=32;scalar=64";
    class       surfaceScalarField;
    location    "0.01";
    object      phi;
}
// * * * * * * * * * * * * * * * * * * * * * * * * * * * * * * * * * * * * * //

dimensions      [0 3 -1 0 0 0 0];

oriented        oriented;

internalField   nonuniform List<scalar> 
86305
(
-0
-0
0
-0
-0
0
-8.85454984267e-07
-5.33612526948e-07
0.000889175276302
-9.96086724797e-07
-1.07606459179e-07
0.000889203896964
-6.03946085907e-07
-3.27065849648e-07
0.000889214447057
-4.73475448146e-07
-1.11668632241e-07
0.000889237244017
-3.29868654287e-07
-1.06278531826e-07
0.000889243273701
-2.56077598177e-07
-5.29710819694e-08
0.000889284061221
-1.90806727483e-07
-4.34731288555e-08
0.000889261341982
-1.46836425019e-07
-2.79641711479e-08
0.000889265991266
-1.08904195144e-07
-2.2727192825e-08
0.000889293143285
-7.84455600946e-08
-1.73677623346e-08
0.000889259808375
-5.06016430212e-08
-1.52218837387e-08
0.00088922235507
-2.48029817808e-08
-1.36506855177e-08
0.000889030706377
-1.26746008189e-08
0.000885962737095
-0
-0
0
-7.95496229821e-07
-8.22185711049e-07
0.000889187631567
-8.5034930137e-07
-5.91601020053e-07
0.000889266955059
-4.91958565111e-07
-3.65749599842e-07
0.000889200894929
-4.64688396523e-07
-2.81466060073e-07
0.000889261849577
-3.50922864755e-07
-1.68047034095e-07
0.000889246174655
-2.84726831172e-07
-1.23882626987e-07
0.000889254683284
-2.22860805924e-07
-8.00862270901e-08
0.000889289320897
-1.74905212968e-07
-6.09546178867e-08
0.000889266029369
-1.35788765954e-07
-4.32815920046e-08
0.00088926966848
-1.02528306354e-07
-3.45807570285e-08
0.00088929645038
-7.41452703345e-08
-2.72173253061e-08
0.000889262926339
-4.80331435127e-08
-2.38459596564e-08
0.000889225340807
-2.35340079245e-08
-2.15838720682e-08
0.000889033694019
-2.01201168674e-08
0.000885965733654
-4.7468225591e-07
-8.08461282298e-07
0.000889197837648
-5.94384646916e-07
-8.29379170899e-07
0.000889272258314
-4.98673673405e-07
-4.95177728369e-07
0.000889168350085
-4.80658486904e-07
-3.34091011737e-07
0.000889237807664
-3.80362222587e-07
-2.88391968582e-07
0.000889251471022
-3.27152868066e-07
-1.76781259586e-07
0.000889251718426
-2.55342952003e-07
-1.46192407061e-07
0.000889252265878
-2.08956925304e-07
-9.50911467375e-08
0.000889288602753
-1.62940063866e-07
-7.71745594024e-08
0.000889264042908
-1.28679618986e-07
-5.47864243647e-08
0.000889267703281
-9.72141840631e-08
-4.50983172244e-08
0.000889294273457
-7.08276094701e-08
-3.54657764694e-08
0.000889260670443
-4.60395171142e-08
-3.14035735717e-08
0.000889223049715
-2.27165155974e-08
-2.85259315087e-08
0.000889031344303
-2.6847646409e-08
0.000885963328951
-5.03181095134e-08
-8.48614509036e-07
0.000889276691173
-3.17164139459e-07
-4.50223646057e-07
0.000889210169233
-3.36341691959e-07
-4.41380085079e-07
0.000889253360636
-2.97184778056e-07
-3.03528758844e-07
0.000889230498017
-2.8268508806e-07
-2.57000847928e-07
0.0008892730046
-2.3762386343e-07
-1.78143425605e-07
0.000889247734413
-2.05814447232e-07
-1.42929906418e-07
0.000889253201604
-1.69295387888e-07
-1.02319835922e-07
0.000889283063678
-1.39185118966e-07
-8.19584899123e-08
0.00088925902157
-1.10851137922e-07
-6.16010628203e-08
0.000889261010219
-8.58299770168e-08
-5.06684675267e-08
0.000889287471502
-6.27318786839e-08
-4.10539747006e-08
0.000889253413822
-4.10151259888e-08
-3.64982589032e-08
0.000889215699147
-2.01512829598e-08
-3.34768309495e-08
0.000889023911968
-3.15408887216e-08
0.000885955945149
-3.96627769963e-07
-5.27192169542e-07
0.000889212275113
-3.17015721452e-07
-4.55034798417e-07
0.000889269243385
-3.03690257359e-07
-3.57952263701e-07
0.00088925302705
-2.76131256464e-07
-2.811318612e-07
0.000889271168347
-2.43877270962e-07
-2.31701473569e-07
0.00088929426474
-2.15319498657e-07
-1.70656990824e-07
0.00088927898804
-1.81815152255e-07
-1.4036449094e-07
0.000889279635996
-1.54089650678e-07
-1.03632148863e-07
0.000889311569245
-1.25973107944e-07
-8.53199824796e-08
0.000889286357075
-1.01979108375e-07
-6.52280742605e-08
0.000889288656908
-7.89870842051e-08
-5.47030960442e-08
0.000889314821541
-5.8264035345e-08
-4.47676956878e-08
0.000889280773855
-3.82708893488e-08
-4.01816563215e-08
0.000889242987127
-1.89975727229e-08
-3.70711014194e-08
0.000889051169061
-3.5171936759e-08
0.000885983057098
-1.16757499019e-07
-4.47423198494e-07
0.000889261009262
-1.65387599275e-07
-3.48931176212e-07
0.000889252509807
-1.78624519768e-07
-3.09085508368e-07
0.000889260956297
-1.78275946779e-07
-2.38022917738e-07
0.000889249464641
-1.73342361459e-07
-2.0355648135e-07
0.000889281576071
-1.57077795291e-07
-1.55235313675e-07
0.00088925572607
-1.41496299709e-07
-1.29236106242e-07
0.000889258621379
-1.2191739398e-07
-9.93788790031e-08
0.000889287046963
-1.03661162204e-07
-8.23993856966e-08
0.000889262137707
-8.48505445473e-08
-6.5033439548e-08
0.000889263292257
-6.70854123927e-08
-5.49340721692e-08
0.000889289386141
-4.96437456227e-08
-4.59041765928e-08
0.000889254959634
-3.27253183827e-08
-4.14504467543e-08
0.000889217098958
-1.61541405137e-08
-3.85178810301e-08
0.00088902519098
-3.66006341035e-08
0.000885957172502
-1.36119718364e-07
-3.13543470616e-07
0.000889243591429
-1.48093519009e-07
-2.8698596065e-07
0.000889258117437
-1.61355455514e-07
-2.44387208024e-07
0.000889253468117
-1.57365476679e-07
-2.05373366844e-07
0.000889253550231
-1.50508881884e-07
-1.73933759972e-07
0.000889280020454
-1.38513612342e-07
-1.3936094292e-07
0.000889258072194
-1.23953044902e-07
-1.17241302118e-07
0.000889259045842
-1.08596207656e-07
-9.2828858937e-08
0.000889288470449
-9.23266927651e-08
-7.8143904467e-08
0.000889262941291
-7.64782486736e-08
-6.28141260054e-08
0.000889264280009
-6.05933634951e-08
-5.37605289549e-08
0.000889290172784
-4.52061806724e-08
-4.54408656196e-08
0.000889255756547
-2.99682744613e-08
-4.1335416486e-08
0.000889217840631
-1.49477253491e-08
-3.86257483878e-08
0.000889025930795
-3.68849868897e-08
0.000885957892576
-6.21345047445e-08
-2.55621707527e-07
0.000889291583094
-8.79103023935e-08
-2.26422618044e-07
0.000889292042673
-1.00964082603e-07
-2.03223132995e-07
0.000889292514978
-1.07300882515e-07
-1.69765288532e-07
0.000889284228288
-1.08100158316e-07
-1.48089169044e-07
0.000889313120415
-1.03157022785e-07
-1.20442272174e-07
0.000889287349876
-9.60812060416e-08
-1.03013766004e-07
0.000889288988019
-8.59318253128e-08
-8.32634966005e-08
0.000889316855513
-7.50670057973e-08
-7.08577371737e-08
0.000889291385554
-6.29368398189e-08
-5.80395116213e-08
0.000889292107008
-5.0616436118e-08
-5.01031897699e-08
0.000889317930827
-3.78848571175e-08
-4.29442825323e-08
0.000889283272474
-2.5141482996e-08
-3.92903557922e-08
0.000889245297573
-1.24708249149e-08
-3.68987033767e-08
0.000889053303078
-3.52953289024e-08
0.000885985151321
-5.90001939468e-08
-1.89605266902e-07
0.000889261732983
-7.55904064e-08
-1.78204515053e-07
0.000889267337345
-8.85321488137e-08
-1.59334211744e-07
0.000889264633729
-9.25374001959e-08
-1.39554504852e-07
0.000889259406402
-9.35446699933e-08
-1.21931922778e-07
0.000889286671005
-8.98182602943e-08
-1.02406285249e-07
0.000889262098333
-8.39039654371e-08
-8.82878113465e-08
0.000889263038457
-7.57960777181e-08
-7.2902280234e-08
0.000889291247686
-6.64539514344e-08
-6.26639386e-08
0.0008892654977
-5.61900788811e-08
-5.20744801688e-08
0.000889266278467
-4.53483685414e-08
-4.53626265383e-08
0.000889291992724
-3.41644122917e-08
-3.92492107384e-08
0.000889257335435
-2.28054814916e-08
-3.60973843781e-08
0.000889219344101
-1.1413923346e-08
-3.40475690458e-08
0.000889027392582
-3.26748930327e-08
0.000885959349892
-3.5766344997e-08
-1.49701587451e-07
0.000889268376322
-5.10445268977e-08
-1.38819405409e-07
0.000889270754587
-6.10561110084e-08
-1.27464913733e-07
0.000889269224294
-6.74218814586e-08
-1.1149353447e-07
0.000889261608749
-7.01440400208e-08
-9.92848187027e-08
0.000889289420388
-6.94258154564e-08
-8.40089410076e-08
0.000889263534488
-6.65023140134e-08
-7.33599954013e-08
0.000889264606884
-6.12165533015e-08
-6.12318591784e-08
0.00088929217394
-5.46661503013e-08
-5.31114461678e-08
0.000889266398506
-4.67393411731e-08
-4.46090684319e-08
0.000889266879853
-3.81154218682e-08
-3.91293564965e-08
0.000889292545515
-2.88053520565e-08
-3.41461588938e-08
0.000889257779908
-1.9225379449e-08
-3.15369859776e-08
0.000889219826289
-9.57961032222e-09
-2.98533432682e-08
0.0008890279716
-2.87011032847e-08
0.000885959929728
-3.19663022256e-08
-1.10406870576e-07
0.0008892933972
-4.37763122759e-08
-1.04810927073e-07
0.000889296954739
-5.31944354436e-08
-9.64334011337e-08
0.00088929458908
-5.83445531401e-08
-8.63328848346e-08
0.000889287706118
-6.11892502413e-08
-7.71647792289e-08
0.00088931502913
-6.08459876313e-08
-6.64555593118e-08
0.000889289447774
-5.86403964085e-08
-5.83633502721e-08
0.000889290270937
-5.43677679413e-08
-4.93213042967e-08
0.000889317918721
-4.8795026011e-08
-4.30508470531e-08
0.000889292024711
-4.19838781939e-08
-3.64699940348e-08
0.000889292513836
-3.43707291682e-08
-3.2167766061e-08
0.000889318162082
-2.61047739439e-08
-2.82320549827e-08
0.000889283513185
-1.75157554192e-08
-2.61448260514e-08
0.00088924593771
-8.78588032679e-09
-2.48376721642e-08
0.000889055007031
-2.39313671135e-08
0.000885987186252
-2.37132805456e-08
-8.05768196191e-08
0.000889260613208
-3.36766964394e-08
-7.59324556328e-08
0.00088926337703
-4.1219086771e-08
-7.08055321464e-08
0.000889261266982
-4.65524095097e-08
-6.3235038865e-08
0.000889253708721
-4.95938257393e-08
-5.71300939581e-08
0.000889281130685
-5.03217627848e-08
-4.92587266485e-08
0.000889255112352
-4.92344172779e-08
-4.36024924096e-08
0.000889255939724
-4.62812136998e-08
-3.69545664817e-08
0.000889283335891
-4.202273123e-08
-3.24394546049e-08
0.000889257417278
-3.64677699321e-08
-2.75739272217e-08
0.000889257798085
-3.00584486449e-08
-2.44169927425e-08
0.000889283542668
-2.28995198144e-08
-2.14979091881e-08
0.000889249321499
-1.53739574445e-08
-1.99396041331e-08
0.000889213260571
-7.69527969527e-09
-1.9032321389e-08
0.000889026486358
-1.83911577708e-08
0.000885960855606
-2.18402533954e-08
-5.1815338375e-08
0.000889222580434
-3.05606379413e-08
-4.91705206426e-08
0.000889225592121
-3.77068371478e-08
-4.5996767273e-08
0.000889223268816
-4.25595005924e-08
-4.13619751383e-08
0.000889215856393
-4.55948300269e-08
-3.75285075919e-08
0.000889243141935
-4.64387717158e-08
-3.25009229846e-08
0.000889217174939
-4.56381485562e-08
-2.89074397278e-08
0.000889217927879
-4.30936443589e-08
-2.45517349003e-08
0.000889245323063
-3.92611286567e-08
-2.16493477119e-08
0.000889219383419
-3.41951356581e-08
-1.84179792146e-08
0.00088921982684
-2.82415702389e-08
-1.63640452698e-08
0.000889245949229
-2.15612218146e-08
-1.44179891759e-08
0.000889213252452
-1.4498762142e-08
-1.33636316656e-08
0.00088918190122
-7.25999574234e-09
-1.28413915188e-08
0.000889009079941
-1.2406808799e-08
0.000885957114576
-1.96256678964e-08
-2.56843520401e-08
0.000889031097905
-2.76421336876e-08
-2.41851045454e-08
0.000889033959199
-3.42385454162e-08
-2.28268780118e-08
0.000889031663181
-3.89917890188e-08
-2.04009477614e-08
0.000889024093744
-4.20579132698e-08
-1.86574409835e-08
0.000889051382238
-4.3141122488e-08
-1.60911541731e-08
0.000889025291623
-4.26590500342e-08
-1.44005765553e-08
0.000889026053005
-4.0487918052e-08
-1.21994819122e-08
0.000889053347238
-3.7052656911e-08
-1.08038606648e-08
0.000889027453088
-3.23839235545e-08
-9.1803020289e-09
0.000889027984406
-2.68175262851e-08
-8.17429680692e-09
0.000889055031406
-2.05230383505e-08
-7.20426494467e-09
0.000889026485747
-1.38168415664e-08
-6.64599640074e-09
0.000889009087223
-6.95536385029e-09
-6.45454722981e-09
0.00088888419445
-6.27519195924e-09
0.000885867278315
-1.89787788158e-08
0.000885962899234
-2.65767359156e-08
0.000885965919198
-3.30141565597e-08
0.000885963491437
-3.75755124893e-08
0.000885956062539
-4.06189744286e-08
0.000885983181421
-4.17172857754e-08
0.000885957229832
-4.13133481482e-08
0.000885957970613
-3.92821890182e-08
0.000885985170216
-3.59791015754e-08
0.000885959390953
-3.15105125364e-08
0.000885959929252
-2.61000618991e-08
0.000885987203275
-2.00264423034e-08
0.000885960848771
-1.34229301549e-08
0.000885957118717
-6.77948042325e-09
0.000885867273517
0.000882064174656
-0
-0
0
-0
-0
0
-6.85332671158e-07
-4.16982865557e-07
0.000888613479292
-7.74546697364e-07
-1.66955543195e-08
0.000889188545189
-4.81412548763e-07
-2.92816859813e-07
0.00088915172145
-3.9757389172e-07
-8.44214621911e-08
0.000889204928196
-2.82930495979e-07
-1.02402873748e-07
0.000889205700085
-2.26874001834e-07
-4.65856692482e-08
0.000889258247779
-1.71171449328e-07
-4.35144417444e-08
0.000889236200387
-1.34228822769e-07
-2.65431487206e-08
0.000889245968715
-1.00148553521e-07
-2.30960598719e-08
0.000889274218909
-7.28861640888e-08
-1.71871128757e-08
0.000889243143524
-4.713299706e-08
-1.55670992517e-08
0.000889206237902
-2.32408589449e-08
-1.41319695803e-08
0.000889015223972
-1.3682241087e-08
0.000885947523285
-0
-0
0
-7.17314105958e-07
-7.31935369994e-07
0.000888567811457
-6.73919054381e-07
-4.54980279561e-07
0.000889261555749
-3.55722688468e-07
-2.74838319505e-07
0.000889140840828
-3.73611008279e-07
-2.36113823163e-07
0.00088922303447
-2.8327026379e-07
-1.37633194615e-07
0.00088920904528
-2.4205559529e-07
-1.12259835466e-07
0.000889223325257
-1.92874136745e-07
-7.00859674594e-08
0.000889263639436
-1.55145408448e-07
-5.79272250787e-08
0.000889242713136
-1.2223473624e-07
-3.98861472299e-08
0.000889250100534
-9.33181386308e-08
-3.37250293278e-08
0.000889278162491
-6.8069520379e-08
-2.60614286252e-08
0.00088924655179
-4.42220836528e-08
-2.35729807022e-08
0.000889209499017
-2.17191724604e-08
-2.13785349164e-08
0.000889018437445
-2.0435048491e-08
0.000885950767137
-3.75571170658e-07
-6.29827515976e-07
0.000888641598672
-4.34268441919e-07
-6.59551755828e-07
0.00088925857034
-4.11446087024e-07
-4.11160365985e-07
0.00088910170727
-3.92633930848e-07
-2.61475563616e-07
0.000889205632366
-3.21859339059e-07
-2.5750626465e-07
0.000889202088454
-2.83391977059e-07
-1.45706725944e-07
0.000889221324269
-2.25298186788e-07
-1.37251329484e-07
0.000889219163255
-1.88120185272e-07
-8.33049066919e-08
0.000889264643397
-1.48067418735e-07
-7.45539316289e-08
0.000889240616561
-1.18558051993e-07
-5.03566206012e-08
0.000889248664119
-8.99595752758e-08
-4.41562913204e-08
0.000889276105984
-6.60967094045e-08
-3.37662766727e-08
0.00088924451218
-4.306824981e-08
-3.08946742571e-08
0.000889207342714
-2.13626238437e-08
-2.79270328787e-08
0.000889016186946
-2.68408585456e-08
0.000885948371985
3.36869004576e-08
-6.25572364169e-07
0.000889278649144
-2.09548807446e-07
-3.48202491929e-07
0.000889142055182
-2.42556145268e-07
-3.53458327129e-07
0.000889228665568
-2.20274629948e-07
-2.37791490567e-07
0.000889184532003
-2.26942368326e-07
-2.20688964538e-07
0.000889242854711
-1.93168531554e-07
-1.47899243017e-07
0.00088921615276
-1.75219942405e-07
-1.29566436196e-07
0.000889227567825
-1.4606649967e-07
-8.94113364377e-08
0.000889260016375
-1.2313910736e-07
-7.69486825129e-08
0.000889238488656
-9.91607303857e-08
-5.61240310687e-08
0.000889242798991
-7.77494248618e-08
-4.85810724382e-08
0.000889270484729
-5.71982110166e-08
-3.86779067003e-08
0.000889237774001
-3.75352176503e-08
-3.53943525397e-08
0.000889200535605
-1.84514390908e-08
-3.22884483168e-08
0.000889009189383
-3.08378093113e-08
0.000885941490513
-3.52330979938e-07
-4.19560743866e-07
0.000889143656641
-2.72348070495e-07
-3.78686996903e-07
0.000889219744627
-2.74638076778e-07
-3.00248123924e-07
0.000889202106432
-2.42906121647e-07
-2.34301233361e-07
0.000889235945811
-2.19736674947e-07
-2.06697017631e-07
0.000889257103002
-1.93762432058e-07
-1.46640646609e-07
0.000889251754905
-1.65753007291e-07
-1.30524237053e-07
0.000889252584075
-1.41374616875e-07
-9.23300675104e-08
0.000889290109313
-1.16386765661e-07
-8.12912879095e-08
0.000889265711563
-9.48666564672e-08
-6.00406711869e-08
0.000889271053189
-7.37678059335e-08
-5.2823551498e-08
0.00088929796493
-5.47242950697e-08
-4.23559685272e-08
0.000889265408178
-3.6081749614e-08
-3.90312604469e-08
0.000889227981271
-1.79928712622e-08
-3.57645057515e-08
0.000889036556026
-3.43404126703e-08
0.000885968566688
-7.97985329169e-08
-3.68770663585e-07
0.000889237892863
-1.26334899972e-07
-2.91320947044e-07
0.000889211679762
-1.38381320451e-07
-2.6274570219e-07
0.000889235499989
-1.40952112873e-07
-1.99499761694e-07
0.000889217233629
-1.43019554872e-07
-1.80218749898e-07
0.000889257164955
-1.31106739442e-07
-1.33755723281e-07
0.000889230928036
-1.22063144519e-07
-1.18399826312e-07
0.000889237453103
-1.06249720752e-07
-8.84056956277e-08
0.000889267308902
-9.22356811771e-08
-7.73465668422e-08
0.000889244178697
-7.61274222533e-08
-5.96082882366e-08
0.000889246751376
-6.09084836241e-08
-5.24150114296e-08
0.000889273758434
-4.532161849e-08
-4.32005525046e-08
0.000889240217135
-3.00403448552e-08
-3.99275091862e-08
0.000889202713723
-1.48481567463e-08
-3.6868487313e-08
0.000889011102567
-3.53062161789e-08
0.000885943290012
-1.30186552316e-07
-2.6561131801e-07
0.000889201667041
-1.36836392636e-07
-2.48201149413e-07
0.000889221647185
-1.52036345553e-07
-2.12848838135e-07
0.000889218770881
-1.44643547229e-07
-1.78483136693e-07
0.000889225140519
-1.40249417276e-07
-1.57167374762e-07
0.000889252574653
-1.27973159371e-07
-1.23307001409e-07
0.000889235346945
-1.15509305001e-07
-1.09020013795e-07
0.000889237201908
-1.01129886232e-07
-8.40479733828e-08
0.00088926973306
-8.64457884872e-08
-7.40811453473e-08
0.000889244991532
-7.17784740399e-08
-5.82076029306e-08
0.000889248211783
-5.71061842862e-08
-5.16022525117e-08
0.000889274687517
-4.27848950676e-08
-4.30215375349e-08
0.000889241256034
-2.85415469877e-08
-3.99339022757e-08
0.000889203603475
-1.43117242846e-08
-3.70940986792e-08
0.000889011926386
-3.56619415152e-08
0.000885943936447
-4.9002556675e-08
-2.23469407649e-07
0.000889269451314
-7.20794468368e-08
-1.98112456229e-07
0.000889265030576
-8.30913325151e-08
-1.80270702055e-07
0.00088927094845
-8.94703901678e-08
-1.48688596052e-07
0.00088926081252
-9.23363898305e-08
-1.34291314238e-07
0.000889293110089
-8.8852660905e-08
-1.06981819646e-07
0.000889267540703
-8.458254048e-08
-9.53898870759e-08
0.000889271087526
-7.61903530363e-08
-7.54417778204e-08
0.000889299856893
-6.75985111694e-08
-6.67393680806e-08
0.000889275451711
-5.70259230417e-08
-5.37175451046e-08
0.000889277044147
-4.63488213053e-08
-4.78057961164e-08
0.000889303457063
-3.48905809089e-08
-4.0566264549e-08
0.000889269358762
-2.33546556072e-08
-3.77915512885e-08
0.000889231619105
-1.16395955667e-08
-3.53029658402e-08
0.000889039796696
-3.39238040736e-08
0.000885971773463
-5.72677424882e-08
-1.6720623758e-07
0.000889234337479
-7.14740861276e-08
-1.58324606351e-07
0.00088924175557
-8.46102580339e-08
-1.42727161491e-07
0.000889240226079
-8.68525711342e-08
-1.24514800332e-07
0.000889237474655
-8.85130024837e-08
-1.11626656436e-07
0.000889265666517
-8.42449835573e-08
-9.24553764572e-08
0.000889243303626
-7.91523167247e-08
-8.24328371892e-08
0.000889244988502
-7.12935107459e-08
-6.68970193266e-08
0.000889274843898
-6.27837493277e-08
-5.94240639124e-08
0.00088924967242
-5.31169620879e-08
-4.86480363743e-08
0.000889251541967
-4.30720936991e-08
-4.35145810241e-08
0.000889277656443
-3.25955413436e-08
-3.73113872848e-08
0.000889243603816
-2.1971342881e-08
-3.48561395563e-08
0.000889205784307
-1.10838042415e-08
-3.27314402569e-08
0.000889013933337
-3.15359069909e-08
0.00088594587807
-3.06821364919e-08
-1.35046753764e-07
0.000889249639071
-4.42563244311e-08
-1.24699239169e-07
0.000889250703147
-5.29988877626e-08
-1.15913282715e-07
0.000889251152723
-5.88683436129e-08
-1.00240770004e-07
0.00088924320392
-6.20657472737e-08
-9.14638095099e-08
0.000889272454703
-6.17127853591e-08
-7.61961542585e-08
0.00088924692207
-5.99167116841e-08
-6.85541539959e-08
0.000889248931906
-5.5395436053e-08
-5.63311964982e-08
0.000889277086629
-5.00086417933e-08
-5.03088692594e-08
0.000889251896315
-4.29527070389e-08
-4.17380292049e-08
0.000889252913717
-3.53536720049e-08
-3.74946317779e-08
0.000889278926343
-2.69019078368e-08
-3.2491035421e-08
0.00088924450761
-1.81852702361e-08
-3.04364577374e-08
0.000889206689794
-9.15170270777e-09
-2.87027292516e-08
0.000889014909148
-2.76786497657e-08
0.000885946920653
-3.10287093892e-08
-9.9704290023e-08
0.000889273438126
-4.17258598474e-08
-9.47112164229e-08
0.000889277663621
-5.10030981027e-08
-8.79208575818e-08
0.000889275873643
-5.52677098182e-08
-7.83036049945e-08
0.000889270033326
-5.82373493355e-08
-7.13827850407e-08
0.000889297917512
-5.75186819058e-08
-6.08497392738e-08
0.00088927338247
-5.56480916573e-08
-5.48358799582e-08
0.00088927468186
-5.14439790478e-08
-4.58034430443e-08
0.000889303186653
-4.63422421137e-08
-4.10440129577e-08
0.000889277657924
-3.98850649384e-08
-3.443990559e-08
0.000889278758349
-3.28251512103e-08
-3.1047621866e-08
0.000889304654978
-2.50692014774e-08
-2.70950566205e-08
0.000889270361082
-1.70445938642e-08
-2.54046453007e-08
0.00088923288112
-8.6475396909e-09
-2.40550026027e-08
0.000889041962082
-2.32267939551e-08
0.000885974086744
-2.15904988185e-08
-7.37024957293e-08
0.00088924422086
-3.05704915616e-08
-6.90954318241e-08
0.000889246741004
-3.7430988312e-08
-6.5156535949e-08
0.000889245362924
-4.22880460312e-08
-5.76562868517e-08
0.000889237918233
-4.53542735793e-08
-5.31446710655e-08
0.00088926595858
-4.60730236575e-08
-4.53043544313e-08
0.000889240285506
-4.54154086061e-08
-4.11274332695e-08
0.000889241573461
-4.27692496133e-08
-3.44917283252e-08
0.000889269377824
-3.91033223101e-08
-3.10687454547e-08
0.000889243775898
-3.40354426661e-08
-2.62168517296e-08
0.000889244506973
-2.82692595583e-08
-2.37194531741e-08
0.000889270448143
-2.16923672352e-08
-2.08014814154e-08
0.000889236450863
-1.47899429097e-08
-1.95064458766e-08
0.000889200459783
-7.50554812117e-09
-1.85525149265e-08
0.000889013699312
-1.7938646006e-08
0.000885948061801
-2.10356526523e-08
-4.72282776638e-08
0.00088920597268
-2.90825161641e-08
-4.47308128508e-08
0.000889209274144
-3.5961190207e-08
-4.2276535552e-08
0.000889207267267
-4.03042464348e-08
-3.78055895531e-08
0.000889200348536
-4.32869632979e-08
-3.49997250628e-08
0.000889227979496
-4.39055316625e-08
-3.00726998206e-08
0.000889202561651
-4.32627592887e-08
-2.74616596756e-08
0.000889203619139
-4.077550984e-08
-2.3160802328e-08
0.000889231504702
-3.72653122583e-08
-2.09933539132e-08
0.000889205797651
-3.2471949058e-08
-1.77970444e-08
0.000889206613496
-2.69476349374e-08
-1.61825734296e-08
0.000889232887867
-2.06697294037e-08
-1.42437047279e-08
0.000889200416605
-1.40648502242e-08
-1.33268898591e-08
0.000889169116624
-7.12036021707e-09
-1.27090357449e-08
0.000888996291813
-1.22039607523e-08
0.000885944259424
-1.8243426169e-08
-2.35052547411e-08
0.000889015578034
-2.54518886577e-08
-2.20583154831e-08
0.000889018494949
-3.15566418681e-08
-2.10410530219e-08
0.000889016532235
-3.58123068594e-08
-1.86771793282e-08
0.000889009220788
-3.88011945651e-08
-1.74456075772e-08
0.000889036816804
-3.97502082457e-08
-1.49313666704e-08
0.000889011099106
-3.95132542212e-08
-1.3741927645e-08
0.00088901209613
-3.75155073226e-08
-1.15850587751e-08
0.000889039773565
-3.45216114164e-08
-1.05686267455e-08
0.000889014034289
-3.02364057705e-08
-8.98193715347e-09
0.000889014883923
-2.52043150161e-08
-8.20072072116e-09
0.000889042017297
-1.94015706476e-08
-7.24415760235e-09
0.000889013683294
-1.32180187686e-08
-6.74271894175e-09
0.000888996319341
-6.74322371905e-09
-6.49588203452e-09
0.000888871506344
-6.23302312124e-09
0.000885854564049
-1.77675454229e-08
0.000885947459145
-2.45749535165e-08
0.000885950668148
-3.05557717206e-08
0.000885948431058
-3.45498286188e-08
0.000885941379276
-3.74761888764e-08
0.000885968662037
-3.83567673302e-08
0.000885943178913
-3.8150184465e-08
0.000885944021977
-3.62432287398e-08
0.000885971678081
-3.33607071844e-08
0.000885945939688
-2.92642291808e-08
0.000885946850723
-2.43858993261e-08
0.000885974124114
-1.88006853345e-08
0.000885948019291
-1.27006847031e-08
0.000885944275891
-6.46893235649e-09
0.000885854545779
0.000882051472658
-0
-0
0
-7.52919521648e-07
-5.73608401701e-07
0.000888502348432
-9.3019771372e-07
-2.16948210107e-07
0.000888917806923
-5.80974589244e-07
-3.00286584775e-07
0.000889074155272
-4.55639415255e-07
-1.42749769612e-07
0.000889134237858
-3.34322439483e-07
-1.04840568714e-07
0.000889163517971
-2.62154500549e-07
-6.47769071945e-08
0.000889182054547
-2.03437842755e-07
-4.52150180833e-08
0.000889232471719
-1.59597438425e-07
-3.27202129831e-08
0.000889215834649
-1.23825963699e-07
-2.40162230319e-08
0.000889226820601
-9.39637814769e-08
-1.90245294297e-08
0.000889257290183
-6.80835866346e-08
-1.52501865729e-08
0.000889227278882
-4.43921032565e-08
-1.33715633659e-08
0.000889191214377
-2.18208009021e-08
-1.22039578087e-08
0.000889000551408
-1.13941986716e-08
0.000885933166304
-5.72141512888e-07
-7.34858909388e-07
0.000888509712756
-7.45052631936e-07
-7.17543636314e-07
0.00088888465579
-4.4234714242e-07
-3.74661092016e-07
0.000889116562679
-4.16081677097e-07
-2.88826577251e-07
0.00088910311494
-3.38297239219e-07
-1.80841034135e-07
0.00088918334092
-2.80247026189e-07
-1.30587719335e-07
0.000889176741885
-2.28621647472e-07
-9.01969446732e-08
0.000889197119608
-1.84215706883e-07
-6.54020200096e-08
0.000889239420205
-1.47640218663e-07
-4.89694680615e-08
0.000889222386627
-1.16095893622e-07
-3.68393926503e-08
0.000889231379115
-8.89660534185e-08
-2.94281304507e-08
0.000889261436001
-6.47534218408e-08
-2.37837138756e-08
0.000889230872446
-4.2330565689e-08
-2.09174203646e-08
0.000889194621789
-2.08139390834e-08
-1.91821281177e-08
0.000889003898764
-1.79811780579e-08
0.000885936540027
-2.35413206926e-07
-8.80373572996e-07
0.000888946577342
-3.78113336282e-07
-4.23031963498e-07
0.000889106758337
-3.80513141466e-07
-3.57532135216e-07
0.0008890869777
-3.4530702176e-07
-2.64661271421e-07
0.000889146260525
-3.02723692687e-07
-1.9940742123e-07
0.000889178071168
-2.53685974591e-07
-1.45056096245e-07
0.000889186754598
-2.1053774781e-07
-1.10005378713e-07
0.000889195823161
-1.72066826379e-07
-8.00752008595e-08
0.000889240845366
-1.38753353104e-07
-6.27560556058e-08
0.000889221089401
-1.100781427e-07
-4.72117120578e-08
0.000889230360965
-8.46146176228e-08
-3.84979225095e-08
0.000889259712001
-6.18921251572e-08
-3.10717201044e-08
0.000889229077454
-4.05860185489e-08
-2.75300762661e-08
0.000889192649034
-2.00604283978e-08
-2.53255071138e-08
0.000889001804509
-2.39350172083e-08
0.000885934265246
-3.65455344304e-07
-5.60786609241e-07
0.000889109892603
-3.31047426698e-07
-4.14971527345e-07
0.000889099586435
-2.90396774878e-07
-3.29608877677e-07
0.000889160091244
-2.67052774016e-07
-2.53891478802e-07
0.000889150417857
-2.33702251588e-07
-1.96065486984e-07
0.000889206161917
-2.0322890709e-07
-1.4781254321e-07
0.000889188435553
-1.73606646112e-07
-1.14697615483e-07
0.000889202637507
-1.45437648047e-07
-8.66399848995e-08
0.000889238411881
-1.201762422e-07
-6.87923163606e-08
0.000889219263244
-9.6670028151e-08
-5.32597832858e-08
0.000889225340594
-7.53574975704e-08
-4.38003979066e-08
0.000889254474431
-5.53947350692e-08
-3.59999084801e-08
0.000889222739193
-3.64346799538e-08
-3.20866343788e-08
0.000889186131884
-1.79741061655e-08
-2.96999082784e-08
0.000888995102991
-2.81034880404e-08
0.000885927684732
-1.82234108154e-07
-4.62028772843e-07
0.000889132168202
-2.09931932151e-07
-3.43849118121e-07
0.000889176319671
-2.21613482502e-07
-2.93844232705e-07
0.000889178023002
-2.12946948553e-07
-2.26830586827e-07
0.000889200218049
-1.97761776888e-07
-1.86346117995e-07
0.000889232198155
-1.76222364676e-07
-1.4261875463e-07
0.000889225021407
-1.53565277421e-07
-1.15808831058e-07
0.000889231037924
-1.30869020946e-07
-8.87163988259e-08
0.000889269489201
-1.09047642733e-07
-7.25722975087e-08
0.00088924766991
-8.86857704619e-08
-5.67775818443e-08
0.00088925420887
-6.94416956416e-08
-4.75485317008e-08
0.000889282468754
-5.13912033739e-08
-3.93633792072e-08
0.000889250720931
-3.39660998635e-08
-3.53860388415e-08
0.000889213855355
-1.68876542568e-08
-3.29113877381e-08
0.000889022688846
-3.13472963203e-08
0.000885954922701
-1.3654945453e-07
-3.38742867626e-07
0.000889178498752
-1.56734916864e-07
-2.8712895236e-07
0.000889175144741
-1.62502058632e-07
-2.47580341616e-07
0.000889195002913
-1.59975307184e-07
-2.00431309959e-07
0.000889188307294
-1.50781252049e-07
-1.67393210607e-07
0.000889229017697
-1.37817971864e-07
-1.32338407169e-07
0.000889207684127
-1.23174539916e-07
-1.0911761017e-07
0.00088921611818
-1.0703838359e-07
-8.59289277005e-08
0.000889248385017
-9.11349711381e-08
-7.11019041104e-08
0.000889226804646
-7.50326796265e-08
-5.68821059104e-08
0.000889230753373
-5.95228052886e-08
-4.80698619067e-08
0.000889258769665
-4.42334437083e-08
-4.04272260694e-08
0.000889225991403
-2.92864588911e-08
-3.6568762337e-08
0.000889188949253
-1.45119531645e-08
-3.41897726703e-08
0.00088899760624
-3.26058460981e-08
0.000885930036472
-8.7713358116e-08
-2.71179753199e-07
0.000889178369195
-1.11024380291e-07
-2.35520088366e-07
0.000889193349047
-1.2613770753e-07
-2.08528036698e-07
0.000889194831611
-1.28470194238e-07
-1.72718488548e-07
0.000889199759895
-1.25992534251e-07
-1.48046611015e-07
0.000889230750117
-1.17583774747e-07
-1.19535504897e-07
0.000889214135015
-1.06946122407e-07
-1.00873976087e-07
0.000889218320366
-9.43161659696e-08
-8.07951139636e-08
0.000889251969044
-8.10177050703e-08
-6.80897040602e-08
0.000889228680637
-6.73757164538e-08
-5.51791699735e-08
0.000889232866634
-5.37220017817e-08