/*--------------------------------*- C++ -*----------------------------------*\
| =========                 |                                                 |
| \\      /  F ield         | OpenFOAM: The Open Source CFD Toolbox           |
|  \\    /   O peration     | Version:  2406                                  |
|   \\  /    A nd           | Website:  www.openfoam.com                      |
|    \\/     M anipulation  |                                                 |
\*---------------------------------------------------------------------------*/
FoamFile
{
    version     2.0;
    format      ascii;
    arch        "LSB;label=32;scalar=64";
    class       surfaceScalarField;
    location    "0.01";
    object      phiHbyA;
}
// * * * * * * * * * * * * * * * * * * * * * * * * * * * * * * * * * * * * * //

dimensions      [0 3 -1 0 0 0 0];

oriented        oriented;

internalField   nonuniform List<scalar> 
86305
(
-4.25318658571e-11
-6.43645303895e-11
1.05954501532e-09
-1.61630108363e-07
-1.24806808185e-07
8.4263590458e-07
-8.62303334028e-07
-5.02944405032e-07
0.000889174928118
-1.00137263327e-06
-1.12517374267e-07
0.000889205250335
-5.98168754881e-07
-3.21008574896e-07
0.000889213903333
-4.74070650473e-07
-1.12009054084e-07
0.000889237352366
-3.28153669666e-07
-1.05087366722e-07
0.000889242632197
-2.5591740786e-07
-5.27946506901e-08
0.000889283749813
-1.90100793058e-07
-4.31708724907e-08
0.000889260695422
-1.46641862683e-07
-2.78258511706e-08
0.000889265498572
-1.08566251735e-07
-2.26171331883e-08
0.000889292502353
-7.83197306753e-08
-1.72875573742e-08
0.000889259231304
-5.05489201145e-08
-1.51656678855e-08
0.000889221722371
-2.47985751724e-08
-1.35979032619e-08
0.000889030084715
-1.2624702275e-08
0.000885962104186
-1.13740968326e-07
-1.31535689256e-07
7.99729041283e-07
-7.63543719677e-07
-7.9079058388e-07
0.00088918731217
-8.62726169445e-07
-6.10726887735e-07
0.000889268888716
-4.86274684073e-07
-3.59159503607e-07
0.000889201099525
-4.65308355112e-07
-2.85383101722e-07
0.000889261932799
-3.49986426969e-07
-1.66940169784e-07
0.000889246082006
-2.84026550127e-07
-1.24628455936e-07
0.000889254255239
-2.22574783724e-07
-7.98964213881e-08
0.000889288981476
-1.74363216555e-07
-6.10860948565e-08
0.000889265451147
-1.35622468217e-07
-4.32396862493e-08
0.000889269177738
-1.0222023541e-07
-3.45874765643e-08
0.000889295831676
-7.40435961947e-08
-2.71940675494e-08
0.000889262353446
-4.79843764307e-08
-2.38229487657e-08
0.000889224714618
-2.35327833418e-08
-2.15549797925e-08
0.00088903307541
-2.00890086035e-08
0.000885965104084
-4.44814064931e-07
-7.79855278988e-07
0.000889197407239
-6.12935124777e-07
-8.43197187678e-07
0.000889273619828
-4.85364139717e-07
-4.80081062913e-07
0.000889167741697
-4.85480724717e-07
-3.37425455765e-07
0.000889238248501
-3.75958566443e-07
-2.83481725369e-07
0.000889250695072
-3.280691664e-07
-1.77150807439e-07
0.000889251620637
-2.53707069054e-07
-1.44582107697e-07
0.000889251541259
-2.08992182386e-07
-9.4941763152e-08
0.000889288220362
-1.62224682989e-07
-7.65906284943e-08
0.000889263363677
-1.28561947253e-07
-5.46202958589e-08
0.000889267183131
-9.68761387349e-08
-4.48545344967e-08
0.000889293619954
-7.07262388059e-08
-3.53484902018e-08
0.000889260082736
-4.59851173029e-08
-3.12889505115e-08
0.000889222412277
-2.27132493669e-08
-2.84341515598e-08
0.000889030718553
-2.67560533653e-08
0.000885962692716
-6.28744789819e-08
-8.62331450104e-07
0.000889278990015
-3.06777133139e-07
-4.43011064393e-07
0.000889210632726
-3.41459638738e-07
-4.48595186637e-07
0.000889254258974
-2.93762352584e-07
-3.00837115497e-07
0.000889230513868
-2.83561310267e-07
-2.59340244877e-07
0.000889273022092
-2.36560343435e-07
-1.77362281432e-07
0.000889247509803
-2.05639498831e-07
-1.43600319908e-07
0.000889252811733
-1.68896100539e-07
-1.02096182847e-07
0.000889282664766
-1.38887548964e-07
-8.2126294758e-08
0.000889258474439
-1.10655823367e-07
-6.15214095672e-08
0.000889260497943
-8.5618464114e-08
-5.06886057495e-08
0.000889286868579
-6.26334543241e-08
-4.10085948722e-08
0.00088925283542
-4.0984557269e-08
-3.6468542242e-08
0.000889215078963
-2.01487364655e-08
-3.34319281413e-08
0.000889023294492
-3.14951641821e-08
0.000885955318317
-3.88258577556e-07
-5.16198624556e-07
0.000889211615912
-3.21062166502e-07
-4.55995542129e-07
0.000889269089219
-2.98901835394e-07
-3.51903506694e-07
0.000889252180602
-2.77739675861e-07
-2.81473476649e-07
0.000889270973722
-2.41632867969e-07
-2.28955618306e-07
0.000889293466425
-2.15707536414e-07
-1.70496347857e-07
0.000889278627129
-1.80746102109e-07
-1.39161935934e-07
0.000889278909207
-1.54081813209e-07
-1.03386824616e-07
0.000889311082852
-1.25428059647e-07
-8.47725301928e-08
0.000889285676409
-1.01883582105e-07
-6.50314794273e-08
0.000889288095673
-7.87100483799e-08
-5.44366535053e-08
0.00088931416657
-5.81813632768e-08
-4.46293509316e-08
0.000889280170953
-3.82254896252e-08
-4.00438611513e-08
0.000889242347862
-1.89944677258e-08
-3.69588618606e-08
0.000889050538704
-3.50591024764e-08
0.000885982417969
-1.20340146881e-07
-4.51846246428e-07
0.000889261636487
-1.62423838806e-07
-3.47609754803e-07
0.000889252532526
-1.80226706673e-07
-3.11541538893e-07
0.000889261171564
-1.76797050309e-07
-2.37177572785e-07
0.000889249280938
-1.73683193291e-07
-2.04583845453e-07
0.000889281375645
-1.56423929475e-07
-1.54870077687e-07
0.000889255383404
-1.41384519448e-07
-1.29596664746e-07
0.000889258181146
-1.21607424144e-07
-9.92272576982e-08
0.000889286585741
-1.03466993211e-07
-8.24984324797e-08
0.000889261584376
-8.46851839592e-08
-6.49576550197e-08
0.000889262751633
-6.69365213119e-08
-5.4936805468e-08
0.000889288785389
-4.95619613362e-08
-4.58520533366e-08
0.000889254371066
-3.27066703086e-08
-4.14129354922e-08
0.00088921648063
-1.61510948308e-08
-3.84654383312e-08
0.000889024572114
-3.65478265953e-08
0.000885956546055
-1.33957995932e-07
-3.09648727963e-07
0.000889242775866
-1.48907071155e-07
-2.86223547883e-07
0.000889257630766
-1.59656315775e-07
-2.41808576901e-07
0.000889252668039
-1.5775913411e-07
-2.04941256305e-07
0.000889253075023
-1.49457154299e-07
-1.72475800073e-07
0.000889279273339
-1.38585528373e-07
-1.39009114157e-07
0.000889257557038
-1.23329095676e-07
-1.16459022581e-07
0.000889258346405
-1.08536896775e-07
-9.25560497869e-08
0.000889287910211
-9.19576924558e-08
-7.77236208157e-08
0.000889262272411
-7.63914050453e-08
-6.26189636164e-08
0.00088926368609
-6.03896224464e-08
-5.35287726826e-08
0.00088928952228
-4.5139116987e-08
-4.53040716739e-08
0.00088925514108
-2.99351244409e-08
-4.12026381686e-08
0.000889217201973
-1.49446206171e-08
-3.85131521752e-08
0.000889025297162
-3.67719730782e-08
0.000885957251981
-6.31052776544e-08
-2.56921908244e-07
0.000889291540583
-8.6907505463e-08
-2.26081051088e-07
0.000889291787492
-1.01411515263e-07
-2.04035384822e-07
0.000889292310518
-1.06668740363e-07
-1.69477093578e-07
0.000889283874313
-1.08154515247e-07
-1.48477593728e-07
0.000889312736329
-1.02798477956e-07
-1.2027175856e-07
0.000889286904238
-9.59667319969e-08
-1.0316040495e-07
0.000889288481014
-8.57250254046e-08
-8.31667121231e-08
0.000889316337249
-7.49231258392e-08
-7.08906522514e-08
0.000889290811094
-6.28134078202e-08
-5.79767777104e-08
0.000889291538359
-5.05076893806e-08
-5.00870535339e-08
0.000889317324483
-3.78221342736e-08
-4.28946453672e-08
0.000889282672659
-2.51296860784e-08
-3.92499337528e-08
0.000889244678164
-1.24679578632e-08
-3.6847413662e-08
0.000889052681464
-3.52437574961e-08
0.000885984523685
-5.83291536648e-08
-1.88026448018e-07
0.000889260993198
-7.57414531925e-08
-1.77551873644e-07
0.000889266749441
-8.78791201297e-08
-1.58152256167e-07
0.00088926391034
-9.25818784199e-08
-1.39108817343e-07
0.000889258829601
-9.30400975725e-08
-1.21156030879e-07
0.000889285975328
-8.9776881699e-08
-1.02084799849e-07
0.000889261514043
-8.35460743675e-08
-8.78095380528e-08
0.00088926236683
-7.5718980697e-08
-7.26719501197e-08
0.000889290648609
-6.62144254297e-08
-6.23755166716e-08
0.000889264842508
-5.6113249197e-08
-5.19128695417e-08
0.000889265665599
-4.52061310348e-08
-4.51881468687e-08
0.000889291348628
-3.41110156456e-08
-3.91344402565e-08
0.000889256712687
-2.27832548363e-08
-3.59883870856e-08
0.000889218707709
-1.14110734278e-08
-3.39515742785e-08
0.000889026757782
-3.25786707361e-08
0.000885958709584
-3.6021497598e-08
-1.50059155596e-07
0.000889268008854
-5.0666271739e-08
-1.38673438646e-07
0.000889270323802
-6.11393363135e-08
-1.27699382218e-07
0.000889268795801
-6.71361836489e-08
-1.11363499271e-07
0.000889261133202
-7.00938437498e-08
-9.93980028635e-08
0.000889288917645
-6.9227648926e-08
-8.39151582322e-08
0.000889263011732
-6.63923693394e-08
-7.3394622867e-08
0.000889264046594
-6.10813583167e-08
-6.11667674684e-08
0.000889291611348
-5.45534353361e-08
-5.31052566461e-08
0.000889265802824
-4.6649650369e-08
-4.45605753235e-08
0.000889266288536
-3.80329203919e-08
-3.91042026272e-08
0.000889291931785
-2.87579996662e-08
-3.41053924165e-08
0.000889257170523
-1.9217133381e-08
-3.15010966698e-08
0.000889219204804
-9.57709109115e-09
-2.98110492785e-08
0.000889027347187
-2.86585332588e-08
0.000885959300436
-3.1717915202e-08
-1.09739005838e-07
0.000889292720536
-4.37784882622e-08
-1.0442561926e-07
0.000889296342652
-5.29131458463e-08
-9.58939203406e-08
0.000889293918968
-5.83020682593e-08
-8.60416471703e-08
0.000889287098549
-6.09320810657e-08
-7.67763028166e-08
0.000889314369569
-6.07762297356e-08
-6.62420250628e-08
0.000889288838562
-5.84307265084e-08
-5.81020299761e-08
0.000889289620951
-5.42914697563e-08
-4.91685948607e-08
0.000889317304066
-4.86400006344e-08
-4.28810965244e-08
0.000889291381903
-4.19175250385e-08
-3.6362149496e-08
0.000889291893339
-3.42726179677e-08
-3.20582133556e-08
0.000889317524978
-2.60623899454e-08
-2.8153939862e-08
0.000889282888283
-1.75014770501e-08
-2.60713174736e-08
0.000889245304841
-8.78333138538e-09
-2.47701798797e-08
0.000889054373192
-2.386353485e-08
0.000885986547812
-2.37474331529e-08
-8.06248214448e-08
0.000889260089939
-3.35246816548e-08
-7.58504662691e-08
0.000889262842734
-4.11860102935e-08
-7.08309538373e-08
0.000889260722338
-4.64126779381e-08
-6.31662288601e-08
0.000889253156136
-4.95115556366e-08
-5.71325197022e-08
0.000889280558179
-5.02041986633e-08
-4.92070795192e-08
0.000889254538614
-4.91333330371e-08
-4.35905429511e-08
0.000889255343649
-4.61878536245e-08
-3.6917047507e-08
0.000889282743201
-4.19295891526e-08
-3.24211498968e-08
0.000889256805577
-3.63997000175e-08
-2.7545631053e-08
0.000889257191159
-2.99917772484e-08
-2.43968230515e-08
0.000889282922847
-2.2861917252e-08
-2.14744014107e-08
0.000889248705529
-1.53663615961e-08
-1.99176259928e-08
0.00088921263726
-7.69278331544e-09
-1.90050190468e-08
0.000889025859892
-1.83637400358e-08
0.000885960224902
-2.17443426581e-08
-5.16847014391e-08
0.000889221945033
-3.0515792282e-08
-4.90875352431e-08
0.000889224981457
-3.75793345809e-08
-4.58899744476e-08
0.000889222633613
-4.24907503423e-08
-4.13002047502e-08
0.000889215245041
-4.54582224124e-08
-3.7450916009e-08
0.000889242507559
-4.63606686705e-08
-3.24578768749e-08
0.000889216560928
-4.55112203215e-08
-2.88556198182e-08
0.000889217294415
-4.30192942142e-08
-2.45230888081e-08
0.000889244705215
-3.9157757274e-08
-2.16168815653e-08
0.000889218751002
-3.41350379274e-08
-1.83994522718e-08
0.000889219205357
-2.81714009092e-08
-1.63446065883e-08
0.00088924531845
-2.15251187192e-08
-1.44053261484e-08
0.000889212628295
-1.44860423427e-08
-1.33489413648e-08
0.000889181271812
-7.2575374887e-09
-1.28109674171e-08
0.00088900844856
-1.23726175739e-08
0.000885956479044
-1.95767142409e-08
-2.57050535583e-08
0.000889030494582
-2.75729352417e-08
-2.41931176291e-08
0.000889033365301
-3.41550547803e-08
-2.28436285483e-08
0.000889031054395
-3.89064843731e-08
-2.0407372914e-08
0.000889023493815
-4.19547027022e-08
-1.86690893618e-08
0.000889050765929
-4.30534543727e-08
-1.60958968917e-08
0.000889024683903
-4.25541898266e-08
-1.44078314993e-08
0.000889025429819
-4.0409015773e-08
-1.2202742775e-08
0.000889052731861
-3.69623004018e-08
-1.08080244841e-08
0.000889026825169
-3.23223344013e-08
-9.18238128379e-09
0.000889027362897
-2.67534988574e-08
-8.17651365453e-09
0.000889054401335
-2.04846032841e-08
-7.20531197282e-09
0.000889025860179
-1.37883981159e-08
-6.64712366766e-09
0.000889008457175
-6.94927231126e-09
-6.45166891554e-09
0.000888883565156
-6.26614063088e-09
0.00088586664641
-1.89168146583e-08
0.000885962276948
-2.65158970872e-08
0.000885965310678
-3.29198240154e-08
0.000885962866283
-3.74949487658e-08
0.000885955450425
-4.05082369754e-08
0.000885982552448
-4.16316263609e-08
0.00088595661266
-4.12038711404e-08
0.000885957338188
-3.92037327455e-08
0.000885984547718
-3.58861280454e-08
0.000885958756323
-3.14487025997e-08
0.0008859593023
-2.60344888276e-08
0.000885986568063
-1.9987870639e-08
0.000885960218718
-1.33903504791e-08
0.00088595648437
-6.76721002016e-09
0.00088586664149
0.000882063541182
-7.38824507524e-09
-7.39931526046e-09
3.61460893453e-07
-9.91612311851e-08
-1.48417124232e-07
0.000444976040108
-6.57618789386e-07
-3.80177926474e-07
0.000888621041672
-7.84973161393e-07
-2.47071679938e-08
0.000889184174755
-4.73863785602e-07
-2.85056924193e-07
0.000889152668166
-4.00210771593e-07
-8.53090755904e-08
0.000889203089661
-2.80316541698e-07
-1.00630346816e-07
0.000889205170908
-2.27626291817e-07
-4.64854991642e-08
0.000889256948907
-1.70046606099e-07
-4.30261313479e-08
0.000889235301961
-1.34437774458e-07
-2.63995107439e-08
0.000889244807801
-9.96364153586e-08
-2.29254775782e-08
0.000889273201133
-7.29077766401e-08
-1.70955292557e-08
0.000889242028908
-4.70338627322e-08
-1.54931576247e-08
0.000889205165947
-2.32571465384e-08
-1.40708831734e-08
0.000889014118309
-1.36232637585e-08
0.00088594641731
-1.18826976346e-07
-9.58852947607e-08
0.000444957126362
-6.79002721038e-07
-6.95777687015e-07
0.000888579207403
-6.90956136769e-07
-4.80962905561e-07
0.000889254549314
-3.50373268048e-07
-2.6760993468e-07
0.00088914123458
-3.74709713376e-07
-2.42370223256e-07
0.00088922126746
-2.83246881217e-07
-1.36540300695e-07
0.000889207873378
-2.41114005823e-07
-1.1381317966e-07
0.000889222276946
-1.93238282727e-07
-7.00131522387e-08
0.000889262403737
-1.54365242083e-07
-5.83337038906e-08
0.000889241700468
-1.2241675085e-07
-3.99243095038e-08
0.000889248931527
-9.28850232298e-08
-3.38264938868e-08
0.000889277114595
-6.81089768106e-08
-2.60785074852e-08
0.000889245427989
-4.41364516253e-08
-2.35805981343e-08
0.000889208418401
-2.1737917839e-08
-2.13690928811e-08
0.00088901732639
-2.04220906252e-08
0.000885949655963
-3.40927662733e-07
-5.93904607722e-07
0.000888650111282
-4.58103539852e-07
-6.75743657764e-07
0.000889252057445
-3.95297974286e-07
-3.91982267324e-07
0.000889105004533
-4.00768711417e-07
-2.65966272678e-07
0.000889202765434
-3.15608845278e-07
-2.50435348759e-07
0.000889202523787
-2.86014946413e-07
-1.46421648035e-07
0.00088921969927
-2.2273043574e-07
-1.34729591905e-07
0.000889218615932
-1.88963624142e-07
-8.32005227588e-08
0.000889263383234
-1.46918930977e-07
-7.36103694135e-08
0.000889239732005
-1.1880336482e-07
-5.01690688202e-08
0.000889247514586
-8.94420645203e-08
-4.37748202978e-08
0.000889275094103
-6.61266740412e-08
-3.36236708219e-08
0.000889243400936
-4.29655672556e-08
-3.0733094047e-08
0.000889206271233
-2.13779183897e-08
-2.78127687091e-08
0.000889015080968
-2.67237134886e-08
0.000885947265163
1.62214720675e-08
-6.4725740127e-07
0.000889271057207
-1.97991679015e-07
-3.42680813842e-07
0.000889142727783
-2.50074891771e-07
-3.6542174648e-07
0.000889224796509
-2.16847781685e-07
-2.35672775445e-07
0.000889183849273
-2.28477770066e-07
-2.25249428117e-07
0.000889241012931
-1.92554779121e-07
-1.47488988271e-07
0.00088921500856
-1.75069569347e-07
-1.31154028103e-07
0.000889226321951
-1.46070758818e-07
-8.94257974836e-08
0.000889258826703
-1.22746643995e-07
-7.74799824416e-08
0.000889237381411
-9.92121382979e-08
-5.61776197934e-08
0.000889241643241
-7.74708303143e-08
-4.87428565528e-08
0.000889269397807
-5.72095710184e-08
-3.86991796725e-08
0.000889236649245
-3.74811718954e-08
-3.54165317293e-08
0.000889199439973
-1.84645247385e-08
-3.22785707635e-08
0.000889008071308
-3.08255139187e-08
0.000885940370455
-3.42599878436e-07
-4.0508025218e-07
0.000889145838138
-2.78278796891e-07
-3.79166100894e-07
0.000889218214367
-2.68074873867e-07
-2.91308883194e-07
0.000889202815108
-2.46158149676e-07
-2.34613255207e-07
0.000889234464892
-2.16301285234e-07
-2.02323266323e-07
0.000889256831797
-1.95146590823e-07
-1.46430442855e-07
0.000889250486314
-1.64029435086e-07
-1.28541588675e-07
0.000889251849154
-1.41895731048e-07
-9.20162684122e-08
0.000889288944617
-1.15516557552e-07
-8.03972211385e-08
0.000889264773052
-9.50262585742e-08
-5.97880113246e-08
0.000889269930146
-7.33486713604e-08
-5.24095485952e-08
0.000889296934601
-5.47365088039e-08
-4.21786503297e-08
0.00088926430208
-3.59955856446e-08
-3.88365357689e-08
0.000889226902183
-1.8003603798e-08
-3.56210628045e-08
0.000889035446875
-3.41931380539e-08
0.000885967455094
-8.50262979949e-08
-3.7712112159e-07
0.000889234613552
-1.22847031955e-07
-2.91386261128e-07
0.000889210547889
-1.41069705255e-07
-2.67966291835e-07
0.000889233252484
-1.39518591721e-07
-1.9944780266e-07
0.000889216074775
-1.43747696639e-07
-1.82734466011e-07
0.000889255626803
-1.30718411654e-07
-1.33860001201e-07
0.000889229730216
-1.22008481963e-07
-1.19466080581e-07
0.000889236216501
-1.06190543909e-07
-8.85236365274e-08
0.000889266129927
-9.2006916059e-08
-7.77602022749e-08
0.000889243044265
-7.61256925144e-08
-5.96776001072e-08
0.000889245602808
-6.07261020481e-08
-5.25531984613e-08
0.000889272650949
-4.53168767489e-08
-4.32216593414e-08
0.000889239091207
-3.00070813418e-08
-3.99453456626e-08
0.000889201606017
-1.4855901717e-08
-3.68562555806e-08
0.000889009977361
-3.52919349032e-08
0.000885942161143
-1.27129072529e-07
-2.59611665075e-07
0.00088920171056
-1.38503372709e-07
-2.46808444155e-07
0.000889220700172
-1.49452480078e-07
-2.08648275973e-07
0.000889218413576
-1.4577739555e-07
-1.77720972763e-07
0.000889224040544
-1.38566243068e-07
-1.54721034489e-07
0.000889251882597
-1.28546786329e-07
-1.22765894777e-07
0.000889234230252
-1.145063399e-07
-1.07713795967e-07
0.000889236309898
-1.01366402186e-07
-8.36608481242e-08
0.000889268621414
-8.58726997245e-08
-7.34037543062e-08
0.000889243992543
-7.18456131676e-08
-5.7943595746e-08
0.000889247104511
-5.68067100848e-08
-5.12502226106e-08
0.000889273631745
-4.2776835793e-08
-4.28421021197e-08
0.000889240150979
-2.84781888776e-08
-3.97486975302e-08
0.000889202512818
-1.4317496748e-08
-3.69487601297e-08
0.000889010811295
-3.55136287493e-08
0.000885942817253
-5.05523222094e-08
-2.26668089132e-07
0.00088926760344
-7.09385640899e-08
-1.98676767386e-07
0.000889263757572
-8.39458634146e-08
-1.82495764639e-07
0.000889269382849
-8.89201546391e-08
-1.49007025089e-07
0.000889259591497
-9.25583742215e-08
-1.35528080402e-07
0.00088929178787
-8.86611669165e-08
-1.07188798166e-07
0.000889266348946
-8.44986771475e-08
-9.59847518237e-08
0.000889269897295
-7.61365898614e-08
-7.55650479973e-08
0.000889298693197
-6.7438807723e-08
-6.69921241879e-08
0.000889274317116
-5.70050527074e-08
-5.37752460852e-08
0.00088927590298
-4.62219880119e-08
-4.7892488461e-08
0.000889302340574
-3.48771930718e-08
-4.05791181829e-08
0.000889268232114
-2.33327412629e-08
-3.77974235205e-08
0.00088923050253
-1.16432467898e-08
-3.52876353326e-08
0.00088903866505
-3.39067875455e-08
0.00088597063684
-5.61831056568e-08
-1.64613614333e-07
0.000889233660836
-7.19939781115e-08
-1.57244186209e-07
0.000889240783606
-8.35581524223e-08
-1.40742333567e-07
0.000889239434622
-8.72206351756e-08
-1.23793443334e-07
0.000889236426376
-8.77052342628e-08
-1.10325490051e-07
0.000889264757987
-8.44413833362e-08
-9.19663599984e-08
0.000889242221066
-7.85968576161e-08
-8.16514423977e-08
0.00088924399557
-7.13692388614e-08
-6.65673581891e-08
0.000889273746373
-6.242899264e-08
-5.89736236101e-08
0.000889248625984
-5.31250803685e-08
-4.84277719285e-08
0.00088925043723
-4.28714176533e-08
-4.32574550867e-08
0.000889276577036
-3.25751498311e-08
-3.71602594003e-08
0.000889242495032
-2.19282715791e-08
-3.47065803662e-08
0.000889204681206
-1.10858632731e-08
-3.26071913328e-08
0.00088901281045
-3.14097252832e-08
0.000885944749817
-3.11096685e-08
-1.36246041922e-07
0.000889248271609
-4.38718307857e-08
-1.2504680256e-07
0.000889249490486
-5.32102293746e-08
-1.16805490226e-07
0.000889249866031
-5.86566462952e-08
-1.00470103799e-07
0.000889242018173
-6.20700773826e-08
-9.20038622466e-08
0.000889271249751
-6.1616806826e-08
-7.63376814054e-08
0.000889245758157
-5.98129893978e-08
-6.88329092537e-08
0.000889247778954
-5.5350376821e-08
-5.6407777837e-08
0.000889275940218
-4.9884060449e-08
-5.04309080607e-08
0.000889250768006
-4.29239741517e-08
-4.17689151051e-08
0.000889251779602
-3.5259031083e-08
-3.75330521401e-08
0.000889277806177
-2.68834486004e-08
-3.24924557497e-08
0.000889243380501
-1.81688156685e-08
-3.04315058537e-08
0.000889205566872
-9.15255618262e-09
-2.8686052633e-08
0.000889013772183
-2.76609398053e-08
0.000885945777791
-3.06045066562e-08
-9.86184838843e-08
0.000889272497058
-4.18860125592e-08
-9.4113811377e-08
0.000889276626364
-5.05515522404e-08
-8.70394612058e-08
0.000889274897597
-5.53667174996e-08
-7.78623583975e-08
0.000889268965616
-5.78431562263e-08
-7.07569675836e-08
0.00088929689936
-5.75599344847e-08
-6.05393067692e-08
0.000889272293742
-5.53421817213e-08
-5.44274498979e-08
0.000889273628111
-5.1444379376e-08
-4.55906304856e-08
0.000889302084839
-4.61264995114e-08
-4.0789265186e-08
0.000889276577848
-3.98638643584e-08
-3.42948066939e-08
0.0008892776484
-3.26935024558e-08
-3.08907010954e-08
0.000889303556305
-2.50443733644e-08
-2.69923159073e-08
0.000889269245653
-1.70165168001e-08
-2.53048946371e-08
0.000889231766441
-8.64745966261e-09
-2.39674854827e-08
0.000889040830909
-2.31379732451e-08
0.00088597294944
-2.16546680998e-08
-7.40519474924e-08
0.000889243032012
-3.04466517693e-08
-6.92175673574e-08
0.000889245586119
-3.74195491467e-08
-6.54246045645e-08
0.000889244195285
-4.22025003553e-08
-5.77436265813e-08
0.000889236771958
-4.52754038953e-08
-5.33115434772e-08
0.000889264814255
-4.60162741909e-08
-4.53584467129e-08
0.000889239147123
-4.5305083184e-08
-4.12132287445e-08
0.000889240444541
-4.27277033749e-08
-3.45187184748e-08
0.000889268245306
-3.89971997741e-08
-3.11027465759e-08
0.000889242653493
-3.40024205009e-08
-2.62241428781e-08
0.000889243377926
-2.81917956637e-08
-2.37250053198e-08
0.000889269326121
-2.16707673485e-08
-2.07962762549e-08
0.00088923532285
-1.47749839699e-08
-1.94978011637e-08
0.000889199332184
-7.5046759027e-09
-1.85380191391e-08
0.00088901255827
-1.79243671013e-08
0.000885946914351
-2.08723897226e-08
-4.6994153784e-08
0.000889204914773
-2.91044827157e-08
-4.4586496061e-08
0.000889208186746
-3.57687785406e-08
-4.20816193995e-08
0.000889206199766
-4.02981153307e-08
-3.76969625769e-08
0.00088919925105
-4.30949928064e-08
-3.4856691736e-08
0.000889226898448
-4.38803863117e-08
-2.99966464688e-08
0.000889201454574
-4.309329123e-08
-2.73655349915e-08
0.000889202524518
-4.07408832939e-08
-2.31094089902e-08
0.000889230389722
-3.71321907799e-08
-2.09322721846e-08
0.000889204690985
-3.24371057379e-08
-1.77624466606e-08
0.000889205492373
-2.6859215996e-08
-1.614484312e-08
0.000889231771168
-2.06446548774e-08
-1.42189326094e-08
0.00088919929071
-1.40441196058e-08
-1.3300573505e-08
0.000889167989932
-7.11978570117e-09
-1.26686702483e-08
0.000888995152927
-1.21595412057e-08
0.000885943114584
-1.81688298588e-08
-2.35678882269e-08
0.00088901445355
-2.54232241846e-08
-2.20966312436e-08
0.000889017364057
-3.14490820359e-08
-2.10926010993e-08
0.000889015408523
-3.57715502781e-08
-1.87071921388e-08
0.000889008088768
-3.8674677058e-08
-1.74818756353e-08
0.000889035692863
-3.97046538598e-08
-1.49521559675e-08
0.000889009965271
-3.93871072227e-08
-1.37644035735e-08
0.000889010969972
-3.74708122469e-08
-1.15979231294e-08
0.000889038637304
-3.44138243523e-08
-1.05810749022e-08
0.00088901290402
-3.0198082101e-08
-8.9889673364e-09
0.000889013744975
-2.51280771498e-08
-8.2069317317e-09
0.00088904088196
-1.93747577597e-08
-7.24751382205e-09
0.000889012541741
-1.31832677671e-08
-6.74615189387e-09
0.000888995178832
-6.73877492522e-09
-6.49497878888e-09
0.000888870359832
-6.22745917156e-09
0.000885853413957
-1.76681264484e-08
0.000885946345473
-2.45593928247e-08
0.000885949541532
-3.04259878243e-08
0.000885947314745
-3.45151068935e-08
0.000885940248858
-3.73334116361e-08
0.000885967541018
-3.83126390957e-08
0.000885942043899
-3.80136626576e-08
0.000885942894864
-3.61978562888e-08
0.000885970538368
-3.32468584646e-08
0.000885944805742
-2.92248605772e-08
0.000885945706726
-2.43063550334e-08
0.000885972983468
-1.87737975236e-08
0.000885946871783
-1.26614359564e-08
0.000885943129762
-6.45981640461e-09
0.000885853396005
0.000882050322614
-9.3554844718e-08
-9.43350809781e-08
0.000444920830977
-7.28532521547e-07
-5.40297347466e-07
0.000888512086701
-9.34998830771e-07
-2.19891041457e-07
0.000888914838843
-5.76929868968e-07
-2.95336683251e-07
0.000889075959371
-4.55674620304e-07
-1.42379144099e-07
0.000889133207951
-3.33394800479e-07
-1.03913856723e-07
0.000889163669345
-2.61635848089e-07
-6.44177140141e-08
0.000889181391498
-2.03100087945e-07
-4.49428460505e-08
0.00088923215016
-1.59187180799e-07
-3.25429254668e-08
0.000889215219337
-1.23645107713e-07
-2.38946098985e-08
0.000889226322028
-9.3714704474e-08
-1.89359387777e-08
0.000889256670494
-6.79818112116e-08
-1.51836016087e-08
0.000889226698959
-4.43563058201e-08
-1.33211900526e-08
0.000889190587652
-2.18204129947e-08
-1.21575510323e-08
0.000888999930374
-1.13494000871e-08
0.000885932536124
-5.38868589841e-07
-7.07911671978e-07
0.000888520394921
-7.56862542536e-07
-7.30159442637e-07
0.000888881833409
-4.39249803212e-07
-3.72576285676e-07
0.000889117370176
-4.16615841912e-07
-2.9047667322e-07
0.000889103063397
-3.37776395621e-07
-1.81101452315e-07
0.000889182925518
-2.79886876747e-07
-1.30727896758e-07
0.000889176632612
-2.28190035e-07
-9.03863167703e-08
0.000889196556611
-1.83972816622e-07
-6.53958206635e-08
0.00088923906489
-1.47285641181e-07
-4.90271118229e-08
0.000889221790466
-1.15948063605e-07
-3.68245452043e-08
0.000889230876511
-8.87389967105e-08
-2.94315535609e-08
0.000889260820809
-6.46680004506e-08
-2.37666152296e-08
0.000889230292373
-4.22991992434e-08
-2.09001781834e-08
0.000889193996099
-2.08154249507e-08
-1.91588795113e-08
0.000889003277879
-1.79563710192e-08
0.000885935910098
-2.41745577043e-07
-8.88374659622e-07
0.000888941670701
-3.75224955701e-07
-4.196704083e-07
0.000889107492799
-3.81151405523e-07
-3.57870182443e-07
0.000889084984165
-3.44451437799e-07
-2.63207587784e-07
0.000889146535925
-3.02082640026e-07
-1.98536185536e-07
0.000889177101256
-2.53375003745e-07
-1.44462792245e-07
0.000889186579959
-2.09910564421e-07
-1.09385540524e-07
0.000889195124411
-1.71887776257e-07
-7.97790627881e-08
0.000889240434681
-1.38326275454e-07
-6.24188289888e-08
0.000889220451051
-1.0994858373e-07
-4.70411176133e-08
0.000889229831676
-8.43670414345e-08
-3.83207796226e-08
0.000889259081444
-6.18066022717e-08
-3.09659265096e-08
0.000889228485843
-4.0548840036e-08
-2.74342717509e-08
0.000889192017251
-2.00604956899e-08
-2.52442337514e-08
0.000889001178402
-2.38539907035e-08
0.000885933630627
-3.60428840903e-07
-5.55861090257e-07
0.000889112722664
-3.31858342027e-07
-4.15448441412e-07
0.000889099700397
-2.89243297465e-07
-3.29110229557e-07
0.000889160661495
-2.66779844712e-07
-2.53944377099e-07
0.000889150355753
-2.3333912408e-07
-1.96349945076e-07
0.00088920592874
-2.02891462342e-07
-1.47740214024e-07
0.000889188182013
-1.73303194535e-07
-1.14893976039e-07
0.000889202155555
-1.45217517002e-07
-8.6586235257e-08
0.000889237992327
-1.1991580763e-07
-6.88641266179e-08
0.000889218693908
-9.65339291631e-08
-5.32242328391e-08
0.000889224814306
-7.51812994101e-08
-4.38080192167e-08
0.000889253867525
-5.53194473848e-08
-3.59702953645e-08
0.000889222151298
-3.64128825904e-08
-3.20636841589e-08
0.000889185507894
-1.79748922901e-08
-2.96656439071e-08
0.000888994480139
-2.80680495714e-08
0.000885927053952
-1.82610177075e-07
-4.62417981718e-07
0.000889130304826
-2.09767273221e-07
-3.43244728187e-07
0.000889175887655
-2.21011526959e-07
-2.92952915827e-07
0.000889176875812
-2.12905506109e-07
-2.26267010014e-07
0.000889199883997
-1.9704180834e-07
-1.85421727819e-07
0.000889231397763
-1.76153576856e-07
-1.42216377885e-07
0.000889224603459
-1.53011678184e-07
-1.1519211467e-07
0.000889230360959
-1.30774438532e-07
-8.8441668853e-08
0.000889268983295
-1.08679831228e-07
-7.22117058712e-08
0.000889247027347
-8.85928403325e-08
-5.65945071344e-08
0.000889253640552
-6.92282593571e-08
-4.73446733961e-08
0.000889281832295
-5.1322640574e-08
-3.92401385089e-08
0.000889250113487
-3.39332616944e-08
-3.52693345699e-08
0.000889213218909
-1.68874687825e-08
-3.28117987909e-08
0.000889022055896
-3.12472070918e-08
0.000885954282445
-1.35931923926e-07
-3.38047640343e-07
0.000889179116006
-1.56283267184e-07
-2.86690326081e-07
0.000889175177806
-1.62227877699e-07
-2.47654887198e-07
0.000889195026986
-1.59573211671e-07
-2.00218097103e-07
0.000889188101578
-1.50583296211e-07
-1.6760535084e-07
0.000889228687395
-1.37534889293e-07
-1.32221445591e-07
0.000889207317378
-1.22962959112e-07
-1.09245660165e-07
0.000889215622348
-1.06857945007e-07
-8.58634687207e-08
0.000889247904157
-9.09446905013e-08
-7.11467865902e-08
0.000889226232348
-7.49189769163e-08
-5.68389871649e-08
0.000889230198243
-5.93900245914e-08
-4.80672594249e-08
0.000889258160945
-4.41717114653e-08
-4.03915059461e-08
0.000889225391426
-2.92717741331e-08
-3.65401789106e-08
0.00088918832328
-1.45118475343e-08
-3.41500071599e-08
0.000888996978662
-3.25652162911e-08
0.0008859294022
-8.73524878878e-08
-2.70328822189e-07
0.000889177409133
-1.11085906445e-07
-2.35014671804e-07
0.000889192781719
-1.2557574802e-07
-2.07616868085e-07
0.000889194028791
-1.28493408941e-07
-1.72285926985e-07
0.000889199239642
-1.25465467898e-07