/*--------------------------------*- C++ -*----------------------------------*\
| =========                 |                                                 |
| \\      /  F ield         | OpenFOAM: The Open Source CFD Toolbox           |
|  \\    /   O peration     | Version:  2406                                  |
|   \\  /    A nd           | Website:  www.openfoam.com                      |
|    \\/     M anipulation  |                                                 |
\*---------------------------------------------------------------------------*/
FoamFile
{
    version     2.0;
    format      ascii;
    arch        "LSB;label=32;scalar=64";
    class       volVectorField;
    location    "0.01";
    object      U;
}
// * * * * * * * * * * * * * * * * * * * * * * * * * * * * * * * * * * * * * //

dimensions      [0 1 -1 0 0 0 0];

internalField   nonuniform List<vector> 
29768
(
(-0 -0 0)
(-0 -0 0)
(-0.000176421937528 -9.18163364204e-05 0.800288664059)
(-0.000768858054908 6.16098940749e-05 0.800265340377)
(-0.000328528104139 -0.000189604281043 0.80031918674)
(-0.000325572338233 -3.6809270817e-05 0.800338793991)
(-0.000193313946395 -5.5513448647e-05 0.800349736657)
(-0.00016548863834 -1.95470704925e-05 0.800355166778)
(-0.000114442691072 -2.01942239794e-05 0.800358168565)
(-9.34220056995e-05 -1.06975299216e-05 0.800360023059)
(-6.69415083679e-05 -9.6551972003e-06 0.800359621889)
(-5.17664195383e-05 -6.73423706077e-06 0.800352793084)
(-3.38484937696e-05 -6.1063656169e-06 0.800318805295)
(-2.1359966206e-05 -5.39412122031e-06 0.800122600747)
(-5.71013776234e-06 -5.20494519936e-06 0.797385695474)
(-0 -0 0)
(-0.000124403093861 -0.0001363967361 0.800287339206)
(-0.000713991335677 -0.000459868971306 0.800303012679)
(-0.000230747262483 -0.000182922421565 0.800318153377)
(-0.000299300070476 -0.000163502776087 0.800344893927)
(-0.000209775306796 -8.52243870926e-05 0.800349908619)
(-0.000172560012324 -5.97508334452e-05 0.800354832203)
(-0.000138001380333 -3.81164266993e-05 0.800358039559)
(-0.000105302292902 -2.70831365865e-05 0.800359455683)
(-8.53307380261e-05 -1.9723070919e-05 0.800360909274)
(-6.29429488428e-05 -1.509300413e-05 0.800360060326)
(-4.88111118866e-05 -1.21704861764e-05 0.800353144566)
(-3.21162827362e-05 -1.0480942314e-05 0.800319036118)
(-2.02847241473e-05 -9.47812049459e-06 0.800122860391)
(-5.40160636323e-06 -8.6063069174e-06 0.797386012966)
(-1.31020997291e-05 -0.00014346745635 0.800317857655)
(-0.000474991486854 -0.000731091501564 0.800306502438)
(-0.000195308909629 -0.000208406209157 0.800298808723)
(-0.000335082583279 -0.000210241306003 0.800340629269)
(-0.000196726331417 -0.000148671643136 0.800342496979)
(-0.000214247583485 -9.7304083271e-05 0.80035329818)
(-0.000144793861637 -7.65660532853e-05 0.800354769145)
(-0.000132610370323 -4.92339312512e-05 0.800358660772)
(-9.60039125175e-05 -3.97268616033e-05 0.800359681088)
(-8.13813306132e-05 -2.7553846024e-05 0.800361165494)
(-5.92193481687e-05 -2.273085787e-05 0.800360299315)
(-4.6708099529e-05 -1.75626058845e-05 0.800353370746)
(-3.06101380646e-05 -1.55671257694e-05 0.800319280217)
(-1.96135711201e-05 -1.40911102411e-05 0.800123082539)
(-5.18144883973e-06 -1.33647447092e-05 0.797386185835)
(4.02632522719e-05 -0.00071099099514 0.800312372607)
(-0.000107316348299 -0.000191832186206 0.800333452003)
(-0.000228210728396 -0.00031638174428 0.800352153017)
(-0.000145264603696 -0.000158573922329 0.800352344344)
(-0.000175439515251 -0.000161547071564 0.800357455021)
(-0.000134649423937 -9.6266617111e-05 0.800358221095)
(-0.000123807845246 -8.16535471977e-05 0.800359556264)
(-0.000101022464157 -5.45310452546e-05 0.800360799487)
(-8.35765973935e-05 -4.406425511e-05 0.800361425559)
(-6.82630861855e-05 -3.21562757155e-05 0.80036215275)
(-5.26987033747e-05 -2.6326011803e-05 0.800361067539)
(-4.089981896e-05 -2.10824477323e-05 0.80035391359)
(-2.75479454291e-05 -1.86435049689e-05 0.800319734668)
(-1.7207015498e-05 -1.69975170908e-05 0.80012350717)
(-4.78359605197e-06 -1.58948726191e-05 0.797386659042)
(-0.000229553934969 -0.000233034127549 0.800327397682)
(-0.000197524353078 -0.000291369392358 0.800357618207)
(-0.000154096798914 -0.000174818681883 0.800345923907)
(-0.000173041203787 -0.000170081322537 0.800358113639)
(-0.00013098163484 -0.000122175315256 0.80035457763)
(-0.000133292284972 -9.75905815327e-05 0.800359457268)
(-0.000102712349184 -7.54042983585e-05 0.800358921048)
(-9.49405727699e-05 -5.70740547027e-05 0.800361262512)
(-7.35901091752e-05 -4.57460190779e-05 0.800361571398)
(-6.3563247323e-05 -3.510107767e-05 0.800362540793)
(-4.78563170368e-05 -2.90977498927e-05 0.800361428551)
(-3.82072964034e-05 -2.37491596395e-05 0.800354331167)
(-2.53949902267e-05 -2.12258472573e-05 0.800320169993)
(-1.63527558347e-05 -1.95531186886e-05 0.800123959868)
(-4.3823806942e-06 -1.85445660321e-05 0.797387105462)
(-5.95610456153e-05 -0.000331155632151 0.800355284436)
(-7.14377641825e-05 -0.000207880763248 0.800358215661)
(-0.00010595620813 -0.000209738071029 0.800359808186)
(-9.0994481906e-05 -0.000137762622321 0.800360375839)
(-0.000102153915711 -0.000128168885267 0.800360773454)
(-8.77165696797e-05 -8.88077191037e-05 0.8003614096)
(-8.32236147696e-05 -7.67849884332e-05 0.800361763141)
(-7.13392542934e-05 -5.59454893312e-05 0.800362600697)
(-6.15773811566e-05 -4.69598465165e-05 0.800362953272)
(-5.15323795552e-05 -3.5992677651e-05 0.800363397994)
(-4.10359797755e-05 -3.04255745874e-05 0.800362221574)
(-3.21351344051e-05 -2.50399260985e-05 0.800354938954)
(-2.20232839425e-05 -2.25522787184e-05 0.800320726248)
(-1.36902842126e-05 -2.08525824933e-05 0.800124466605)
(-3.93618578627e-06 -1.97905106276e-05 0.797387634838)
(-6.77152380762e-05 -0.000163411796114 0.800354126225)
(-7.92510321402e-05 -0.000171995865251 0.800361227432)
(-8.3803900458e-05 -0.000131139073305 0.800357150049)
(-9.09659198545e-05 -0.000121464931008 0.800361338663)
(-8.16720906892e-05 -9.55951563135e-05 0.800359558544)
(-8.18204061013e-05 -8.04821331279e-05 0.80036191418)
(-6.97830984778e-05 -6.49392586894e-05 0.800361639818)
(-6.50959092907e-05 -5.25242700349e-05 0.800363023915)
(-5.3612492206e-05 -4.3249247978e-05 0.80036327408)
(-4.69471291563e-05 -3.50191087302e-05 0.80036387993)
(-3.65931949109e-05 -2.96386661309e-05 0.800362714046)
(-2.94402449375e-05 -2.508446587e-05 0.80035548204)
(-1.99040718226e-05 -2.27201753779e-05 0.800321295104)
(-1.27898864063e-05 -2.11987967783e-05 0.800125078501)
(-3.52441547906e-06 -2.01706442882e-05 0.797388286103)
(-2.93189421989e-05 -0.000174950953807 0.800360650345)
(-3.95760247193e-05 -0.00014111635478 0.800361670069)
(-5.53904346671e-05 -0.000133167582005 0.800361556457)
(-5.54399268992e-05 -0.000102654184573 0.800362283028)
(-6.11316793244e-05 -9.2965571193e-05 0.800362291719)
(-5.70933000294e-05 -7.15035832303e-05 0.800363000143)
(-5.52602126646e-05 -6.23965534519e-05 0.800363237265)
(-4.96452122927e-05 -4.86604369075e-05 0.800363929236)
(-4.40544673592e-05 -4.1734239416e-05 0.800364274654)
(-3.78467567492e-05 -3.34373788057e-05 0.800364597803)
(-3.08117038225e-05 -2.88852446162e-05 0.800363426312)
(-2.43966509122e-05 -2.4441011135e-05 0.80035607582)
(-1.69301086067e-05 -2.23222807068e-05 0.800321860719)
(-1.05077907611e-05 -2.09044113509e-05 0.800125599875)
(-3.09825328408e-06 -2.00347463341e-05 0.797388800819)
(-2.6389437692e-05 -0.000106112490038 0.800360130715)
(-3.75117254152e-05 -0.000106089785658 0.800362250615)
(-4.5394858999e-05 -8.99999609457e-05 0.800360905505)
(-5.07770819419e-05 -8.26286658125e-05 0.800362618449)
(-5.05137890072e-05 -6.9404453155e-05 0.800362125259)
(-5.12598821159e-05 -5.99800967174e-05 0.800363334736)
(-4.69373036788e-05 -5.04071790267e-05 0.800363444084)
(-4.44322691786e-05 -4.22551743359e-05 0.80036433406)
(-3.83761585118e-05 -3.57772111795e-05 0.800364684522)
(-3.40311146544e-05 -2.99422216255e-05 0.800365081059)
(-2.73298727712e-05 -2.58737207866e-05 0.800363939352)
(-2.20995620757e-05 -2.24493294354e-05 0.800356620765)
(-1.51867825004e-05 -2.05842709578e-05 0.800322446892)
(-9.69532290579e-06 -1.9376848997e-05 0.800126265296)
(-2.76099446397e-06 -1.84985915835e-05 0.797389541716)
(-1.59352922174e-05 -9.94165475595e-05 0.800362019927)
(-2.34358939325e-05 -8.80917283243e-05 0.800362539185)
(-3.19509797865e-05 -8.28891801809e-05 0.800362449221)
(-3.48828154887e-05 -6.94850951539e-05 0.80036303437)
(-3.85042724819e-05 -6.30495248016e-05 0.800363166875)
(-3.81218533177e-05 -5.16336924505e-05 0.80036377287)
(-3.75517406053e-05 -4.55974444544e-05 0.800364115358)
(-3.50278734747e-05 -3.71915103299e-05 0.80036471243)
(-3.17415208473e-05 -3.2419521231e-05 0.800365130629)
(-2.78947273715e-05 -2.68090530497e-05 0.800365388644)
(-2.30983989017e-05 -2.35278830429e-05 0.800364260319)
(-1.84749053005e-05 -2.03304725726e-05 0.800356901683)
(-1.29483418637e-05 -1.87564463089e-05 0.800322787665)
(-8.0340527437e-06 -1.77383733274e-05 0.800126707773)
(-2.4175054696e-06 -1.71202925029e-05 0.797389989995)
(-1.3680674068e-05 -6.47016884642e-05 0.800360563551)
(-2.10373205496e-05 -6.35504003613e-05 0.80036131155)
(-2.68633339051e-05 -5.67605610083e-05 0.800360991691)
(-3.10233455506e-05 -5.22752174507e-05 0.800361766248)
(-3.27476872485e-05 -4.56380328219e-05 0.800361827994)
(-3.38932097883e-05 -4.01079235082e-05 0.800362549051)
(-3.25721719241e-05 -3.46528675347e-05 0.800362900746)
(-3.13233410222e-05 -2.96743880241e-05 0.800363551903)
(-2.80436583884e-05 -2.56422928123e-05 0.800364002282)
(-2.51405609549e-05 -2.19028325661e-05 0.800364288307)
(-2.06918917157e-05 -1.92215078551e-05 0.800363219644)
(-1.67788848622e-05 -1.6950571268e-05 0.800355988878)
(-1.17059981831e-05 -1.5678033257e-05 0.80032225356)
(-7.40613021997e-06 -1.48497329894e-05 0.800127046966)
(-2.18087535546e-06 -1.42117938243e-05 0.797390662535)
(-1.02643197098e-05 -5.52675486476e-05 0.800353684252)
(-1.57028061344e-05 -5.06407327877e-05 0.800353963191)
(-2.09525562246e-05 -4.80746156368e-05 0.800354022397)
(-2.4075681933e-05 -4.18025600956e-05 0.80035444193)
(-2.66645517788e-05 -3.82967326558e-05 0.800354721687)
(-2.74636297348e-05 -3.2313063831e-05 0.800355227155)
(-2.7419267624e-05 -2.88682367772e-05 0.800355679142)
(-2.62939141009e-05 -2.40743565239e-05 0.800356206813)
(-2.4197266075e-05 -2.12368855498e-05 0.800356698555)
(-2.1639393307e-05 -1.78451826874e-05 0.800356945671)
(-1.81504284694e-05 -1.58225489908e-05 0.800356004857)
(-1.46334283737e-05 -1.38233022992e-05 0.800349186813)
(-1.03478522615e-05 -1.28196036725e-05 0.800316825608)
(-6.43064985482e-06 -1.22275726626e-05 0.800125346124)
(-1.96507124584e-06 -1.18775360855e-05 0.797390845824)
(-9.27932036877e-06 -3.28783314017e-05 0.800319419423)
(-1.45079361848e-05 -3.2277406553e-05 0.800319723159)
(-1.88677385288e-05 -2.93578613771e-05 0.800319755841)
(-2.22288225734e-05 -2.72404801874e-05 0.80032019059)
(-2.42347483039e-05 -2.41541012604e-05 0.800320481357)
(-2.54710825279e-05 -2.14660228044e-05 0.800320988491)
(-2.52191743235e-05 -1.87774200075e-05 0.800321468004)
(-2.45407288731e-05 -1.62678721958e-05 0.800321993246)
(-2.24932747572e-05 -1.41970931288e-05 0.800322527784)
(-2.03177586795e-05 -1.22547760027e-05 0.800322841814)
(-1.70008962505e-05 -1.08377929835e-05 0.800322279668)
(-1.37963984044e-05 -9.64111829391e-06 0.800316837168)
(-9.72807131014e-06 -8.94496158683e-06 0.800288712624)
(-6.09245017406e-06 -8.54634641141e-06 0.800109736772)
(-1.82982993465e-06 -8.19861440932e-06 0.797387537579)
(-8.36484457708e-06 -2.35574155711e-05 0.800123221549)
(-1.30470890627e-05 -2.13378346209e-05 0.800123487849)
(-1.71057334046e-05 -2.07506039231e-05 0.800123557983)
(-2.02412429107e-05 -1.78653342495e-05 0.800123942654)
(-2.22988229337e-05 -1.6739007187e-05 0.800124270741)
(-2.35724782182e-05 -1.39791051406e-05 0.80012473006)
(-2.34985506563e-05 -1.27312178974e-05 0.800125255041)
(-2.30258891126e-05 -1.05089497962e-05 0.800125739427)
(-2.11520965091e-05 -9.40669852943e-06 0.800126350735)
(-1.92572060305e-05 -7.83475512433e-06 0.800126769173)
(-1.60784667323e-05 -7.00778021473e-06 0.80012707742)
(-1.31688285732e-05 -6.08692819098e-06 0.800125363104)
(-9.2237379466e-06 -5.63132213327e-06 0.800109739433)
(-5.84545630173e-06 -5.45375415865e-06 0.799973539655)
(-1.74656704077e-06 -5.32747412945e-06 0.797282767655)
(-8.00588232761e-06 -4.50928090407e-06 0.79738623395)
(-1.2688336551e-05 -5.07321767507e-06 0.797386662131)
(-1.63141925522e-05 -4.19011857412e-06 0.797386609139)
(-1.96887060773e-05 -4.41110079058e-06 0.797387111994)
(-2.13151808463e-05 -3.64196902814e-06 0.797387394042)
(-2.29817769879e-05 -3.58959523192e-06 0.797387912743)
(-2.2541779684e-05 -2.9969622249e-06 0.797388457865)
(-2.25128216439e-05 -2.80905332872e-06 0.797388952441)
(-2.03533558181e-05 -2.39072204891e-06 0.797389629695)
(-1.88845071389e-05 -2.1865156437e-06 0.797390060795)
(-1.55004160165e-05 -1.91606814299e-06 0.797390697758)
(-1.29643110014e-05 -1.77645396765e-06 0.797390870125)
(-8.88866445468e-06 -1.62362524121e-06 0.797387544596)
(-5.75072599897e-06 -1.59422456855e-06 0.797282770918)
(-1.64739941944e-06 -1.52270386413e-06 0.793883844656)
(0 0 0)
(-0 -0 0)
(-9.70130438561e-05 -4.770955781e-05 0.800230386423)
(-0.000624803976818 9.39982887232e-05 0.800323137192)
(-0.000235424340539 -0.000179150349365 0.800235754508)
(-0.000282077795157 -2.57637762715e-05 0.80030747269)
(-0.00015584933533 -5.82465110012e-05 0.800305859663)
(-0.000150452228009 -1.80805468291e-05 0.800326658883)
(-9.84777173917e-05 -2.22644875633e-05 0.800330173921)
(-8.73792513e-05 -1.09129454363e-05 0.800337031139)
(-5.96123318211e-05 -1.0700509617e-05 0.80033802909)
(-4.92986776582e-05 -7.1249189407e-06 0.800333014003)
(-3.03919672964e-05 -6.69508675148e-06 0.800299496788)
(-2.09613536797e-05 -6.07456398142e-06 0.80010276345)
(-4.4286335343e-06 -6.26958437109e-06 0.797365261098)
(-0 -0 0)
(-0.000126786863758 -0.000157514316737 0.800244592684)
(-0.000619776440763 -0.00036981012725 0.800382271723)
(-0.000136590362228 -0.000117914479783 0.800256819292)
(-0.000243618617457 -0.000134794807739 0.800292904608)
(-0.000166021614798 -6.68242555023e-05 0.800307131873)
(-0.000142944283526 -5.22297228949e-05 0.800317059169)
(-0.000120508974661 -3.2613514263e-05 0.800328407911)
(-9.05673956671e-05 -2.48830583107e-05 0.800332672269)
(-7.81073055735e-05 -1.79277882426e-05 0.800337975865)
(-5.56692388788e-05 -1.43940541823e-05 0.800338786774)
(-4.58356788454e-05 -1.15646321615e-05 0.800333485354)
(-2.85847312855e-05 -1.0252461551e-05 0.800299852057)
(-1.95947307315e-05 -9.31370422772e-06 0.80010308827)
(-4.13278649662e-06 -8.63217361406e-06 0.797365560858)
(-1.88232367227e-05 -9.34143233481e-05 0.800241814805)
(-0.000355816031827 -0.000607067472549 0.800387297506)
(-0.000144753031008 -0.00015594107142 0.800205168362)
(-0.00028658530044 -0.000174563067845 0.800307672716)
(-0.000152284669993 -0.000130235799186 0.80027904456)
(-0.000192490971017 -8.22893387796e-05 0.800318751802)
(-0.000120499925453 -7.22552147385e-05 0.800316910519)
(-0.000122934211795 -4.3858428713e-05 0.800331249731)
(-8.3762174259e-05 -3.89231217625e-05 0.800333473762)
(-7.68426997452e-05 -2.5695937242e-05 0.800338934825)
(-5.30812871007e-05 -2.26020390583e-05 0.800339367858)
(-4.469931109e-05 -1.69394798468e-05 0.800333974906)
(-2.75916329598e-05 -1.55321555527e-05 0.800300267211)
(-1.93234852828e-05 -1.40505323509e-05 0.800103426272)
(-4.0179282209e-06 -1.37017879848e-05 0.797365833642)
(5.59812130701e-05 -0.000558066747683 0.800410318513)
(-3.50431235211e-05 -0.000132627703313 0.800258445953)
(-0.000180450590335 -0.000271802822592 0.80032534382)
(-9.23454921364e-05 -0.000115684177193 0.800295563338)
(-0.000143619033826 -0.000143867741072 0.800319599495)
(-0.000105897131871 -7.74649876455e-05 0.800320690501)
(-0.000104121771214 -7.52428614802e-05 0.800329049363)
(-8.71131315705e-05 -4.69767985764e-05 0.800333507085)
(-7.23843272572e-05 -4.16388051453e-05 0.800337395881)
(-6.17213326813e-05 -2.91117666776e-05 0.800340326841)
(-4.6665915816e-05 -2.52876204221e-05 0.800340871457)
(-3.79835399807e-05 -1.98085683069e-05 0.800334798157)
(-2.45119883236e-05 -1.80751890564e-05 0.800301023718)
(-1.6399669433e-05 -1.63576462228e-05 0.800104043961)
(-3.75151182331e-06 -1.55224226079e-05 0.797366442388)
(-0.000209475777423 -0.000149909197424 0.800222723448)
(-0.000167685944021 -0.000239682838346 0.800293157894)
(-0.000137092965235 -0.000127977297807 0.800278160655)
(-0.000156422103766 -0.000141262366838 0.800315177889)
(-0.000113061254564 -0.000102487028557 0.800310796732)
(-0.000123508316741 -8.35199294192e-05 0.80032758717)
(-9.00265962927e-05 -6.81980949098e-05 0.800328530408)
(-8.93315148629e-05 -5.06828807619e-05 0.800336206717)
(-6.58842225717e-05 -4.30970531105e-05 0.800338170375)
(-6.04203234472e-05 -3.22643977612e-05 0.800341602445)
(-4.35069256073e-05 -2.80140812064e-05 0.800341622247)
(-3.66900695143e-05 -2.24848301239e-05 0.80033556827)
(-2.31523366041e-05 -2.06465296375e-05 0.800301656901)
(-1.61554288443e-05 -1.89303444011e-05 0.800104626668)
(-3.50241955507e-06 -1.81846088179e-05 0.797366936811)
(-4.54946552292e-05 -0.000291716203632 0.800335272191)
(-4.65079277767e-05 -0.000175179265772 0.800310366732)
(-8.72517677279e-05 -0.000190003225907 0.800329632117)
(-6.65199056279e-05 -0.000115104242434 0.800321713995)
(-8.55341955515e-05 -0.000118680350472 0.800331280915)
(-7.13829970685e-05 -7.6422190158e-05 0.800331785211)
(-7.12484777634e-05 -7.23881024617e-05 0.800336540326)
(-6.20047468206e-05 -4.98315586837e-05 0.800338800279)
(-5.39503406253e-05 -4.48398231436e-05 0.800341491334)
(-4.65632376036e-05 -3.30638246711e-05 0.800343154778)
(-3.65967234032e-05 -2.93028156803e-05 0.800343182211)
(-2.97519437904e-05 -2.36138479018e-05 0.800336546628)
(-1.97465052664e-05 -2.18163074873e-05 0.800302564037)
(-1.3006051437e-05 -2.00124731771e-05 0.800105391783)
(-3.20558629313e-06 -1.92049347244e-05 0.797367684018)
(-6.63935503207e-05 -0.000120718206135 0.800301483352)
(-7.31916380768e-05 -0.000142909562833 0.80031676444)
(-7.85338235894e-05 -0.000103060059392 0.800316487261)
(-8.51523719814e-05 -0.000102628476626 0.800327720776)
(-7.44242343886e-05 -8.11501415799e-05 0.800328534957)
(-7.71928351203e-05 -6.97563867613e-05 0.800335244494)
(-6.34611251469e-05 -5.82552074774e-05 0.800336909227)
(-6.17822316822e-05 -4.68645765624e-05 0.800340778333)
(-4.91014194477e-05 -4.01932987742e-05 0.800342397246)
(-4.48086073987e-05 -3.21427665743e-05 0.800344362116)
(-3.37703874889e-05 -2.81603402763e-05 0.800344016053)
(-2.83485059074e-05 -2.36233094622e-05 0.800337394369)
(-1.84208782808e-05 -2.18547582164e-05 0.800303297306)
(-1.26816517583e-05 -2.02789756888e-05 0.80010608957)
(-2.95195067862e-06 -1.93841483027e-05 0.797368307968)
(-2.48571865828e-05 -0.000162618201819 0.800335362971)
(-3.01718409434e-05 -0.000126923173988 0.800329808895)
(-4.71806891992e-05 -0.000124817312286 0.800335792432)
(-4.43899001467e-05 -9.15937822315e-05 0.800334196534)
(-5.26186228608e-05 -8.79441093426e-05 0.800338185014)
(-4.8433399153e-05 -6.43815653509e-05 0.80033897352)
(-4.83527206261e-05 -5.95113963078e-05 0.800341605317)
(-4.39383754515e-05 -4.45453144664e-05 0.800343030954)
(-3.92138833802e-05 -4.00720671476e-05 0.8003447752)
(-3.44617170644e-05 -3.11784115323e-05 0.800345766024)
(-2.78137944981e-05 -2.78785538326e-05 0.80034533822)
(-2.26877798061e-05 -2.32026030383e-05 0.800338342633)
(-1.54071506255e-05 -2.16024427664e-05 0.800304176125)
(-1.00607754852e-05 -2.01147448343e-05 0.800106855904)
(-2.64481881726e-06 -1.94478150545e-05 0.797369043923)
(-2.59911775161e-05 -8.5256277272e-05 0.800328670339)
(-3.55975304654e-05 -9.01819214801e-05 0.800332216784)
(-4.32413012151e-05 -7.47431883636e-05 0.800333204256)
(-4.82456447032e-05 -7.11921748623e-05 0.800336834276)
(-4.72115553285e-05 -6.02496000927e-05 0.800338146029)
(-4.87544754244e-05 -5.27210585288e-05 0.80034097487)
(-4.3628983208e-05 -4.5445377684e-05 0.800342395413)
(-4.23426442042e-05 -3.80159787502e-05 0.800344417716)
(-3.57225208454e-05 -3.31808085213e-05 0.800345639575)
(-3.25531539823e-05 -2.75867357964e-05 0.800346738281)
(-2.55490033761e-05 -2.44856477079e-05 0.800346092922)
(-2.13331482322e-05 -2.114914265e-05 0.800339094749)
(-1.42812842087e-05 -1.97196475436e-05 0.800304865555)
(-9.66913858365e-06 -1.84619963788e-05 0.800107540462)
(-2.4354392906e-06 -1.76259494499e-05 0.797369684571)
(-1.42602794185e-05 -9.45371061388e-05 0.800339598131)
(-1.96896371821e-05 -8.16974752936e-05 0.80033840303)
(-2.82064936723e-05 -7.90265267976e-05 0.80034057986)
(-2.98889227326e-05 -6.41006470542e-05 0.800340586938)
(-3.41575013022e-05 -6.03282093889e-05 0.800342468844)
(-3.36375453899e-05 -4.77785735434e-05 0.800343247547)
(-3.36609211946e-05 -4.38177715149e-05 0.800344781793)
(-3.16852773694e-05 -3.47268129242e-05 0.800345782585)
(-2.87844427658e-05 -3.12981764944e-05 0.800346938711)
(-2.57231559069e-05 -2.53400743374e-05 0.800347558855)
(-2.11788560712e-05 -2.28094862985e-05 0.800346829954)
(-1.73504709877e-05 -1.94682688247e-05 0.800339642439)
(-1.2017570077e-05 -1.8223782664e-05 0.800305423835)
(-7.81687507334e-06 -1.71852734852e-05 0.800108162156)
(-2.17195958372e-06 -1.67178460895e-05 0.797370303017)
(-1.33754568498e-05 -5.44435114434e-05 0.800337456112)
(-2.01371335779e-05 -5.49845377387e-05 0.800338453115)
(-2.57072575794e-05 -4.86923329088e-05 0.800339202688)
(-2.96143840197e-05 -4.56958943213e-05 0.800340582543)
(-3.09611322665e-05 -4.02682775125e-05 0.800341584053)
(-3.23159687002e-05 -3.56403751204e-05 0.800342946648)
(-3.06438636642e-05 -3.14456801078e-05 0.800344005656)
(-2.98837034466e-05 -2.69137646732e-05 0.800345173266)
(-2.6378415622e-05 -2.38435500486e-05 0.800346089589)
(-2.40637437464e-05 -2.03091893118e-05 0.800346731277)
(-1.95294714944e-05 -1.82267325446e-05 0.800345919074)
(-1.62198557555e-05 -1.60468094656e-05 0.800338830759)
(-1.11578029417e-05 -1.50452011244e-05 0.800304923437)
(-7.42735837321e-06 -1.41747803578e-05 0.800108465812)
(-2.01386367125e-06 -1.35262761799e-05 0.797370837485)
(-9.54935076478e-06 -5.3310405855e-05 0.800333679347)
(-1.41128648656e-05 -4.78827739732e-05 0.800333544851)
(-1.91551575216e-05 -4.6424348635e-05 0.800334481878)
(-2.1729910706e-05 -3.94001492936e-05 0.800334845841)
(-2.43809721561e-05 -3.70682562429e-05 0.80033587898)
(-2.50926890882e-05 -3.05192374535e-05 0.800336559335)
(-2.51899387123e-05 -2.8053751432e-05 0.800337564186)
(-2.43212559899e-05 -2.29083740203e-05 0.800338338228)
(-2.23729729996e-05 -2.07507308713e-05 0.800339185388)
(-2.02480747754e-05 -1.71724843491e-05 0.800339635424)
(-1.6913875279e-05 -1.5545181461e-05 0.800338877662)
(-1.38983072324e-05 -1.34567581947e-05 0.800332127387)
(-9.77973783435e-06 -1.26185668907e-05 0.800299570987)
(-6.35283094117e-06 -1.20273131042e-05 0.80010685308)
(-1.83881232336e-06 -1.17726003393e-05 0.797371117566)
(-8.98769948463e-06 -2.76427179223e-05 0.800299276974)
(-1.38487509184e-05 -2.77626476798e-05 0.800299642858)
(-1.79869265741e-05 -2.50951135051e-05 0.800300186585)
(-2.1134569242e-05 -2.36957272495e-05 0.80030086445)
(-2.29356548111e-05 -2.12071249357e-05 0.800301631481)
(-2.41907582519e-05 -1.90390113925e-05 0.800302444542)
(-2.37915236344e-05 -1.69972814225e-05 0.800303290218)
(-2.33285423128e-05 -1.48049293569e-05 0.800304091081)
(-2.12179461322e-05 -1.32473954844e-05 0.800304862406)
(-1.93818623674e-05 -1.14809486238e-05 0.800305369966)
(-1.60837999499e-05 -1.03861377977e-05 0.800304921791)
(-1.32820618052e-05 -9.26790268933e-06 0.800299542942)
(-9.28303057041e-06 -8.69104624656e-06 0.800271230616)
(-6.05624119479e-06 -8.23834558653e-06 0.800091125504)
(-1.71692962421e-06 -7.82557619696e-06 0.797367685791)
(-7.88627846068e-06 -2.36388727052e-05 0.800102880673)
(-1.19840210972e-05 -2.09119145545e-05 0.800102980988)
(-1.58151577959e-05 -2.08311905782e-05 0.800103555826)
(-1.85698336452e-05 -1.74557904403e-05 0.800103966102)
(-2.05389932163e-05 -1.6840119747e-05 0.800104725232)
(-2.17432488037e-05 -1.37059103728e-05 0.800105328725)
(-2.16638072186e-05 -1.28791589079e-05 0.800106152143)
(-2.13965018528e-05 -1.04219293167e-05 0.800106806508)
(-1.95681351895e-05 -9.60863244849e-06 0.800107576551)
(-1.80549006011e-05 -7.91137516282e-06 0.800108128703)
(-1.49588473247e-05 -7.24339375482e-06 0.800108486177)
(-1.25124352525e-05 -6.25779096017e-06 0.800106836471)
(-8.66812382153e-06 -5.83455335546e-06 0.800091138464)
(-5.74077112049e-06 -5.60792317893e-06 0.799954541691)
(-1.62244985959e-06 -5.46911565039e-06 0.797262918482)
(-7.60939667797e-06 -2.10189173867e-06 0.797365032087)
(-1.17195128073e-05 -3.21236530141e-06 0.797365281784)
(-1.51438132687e-05 -2.20451663833e-06 0.797365722012)
(-1.8132997392e-05 -2.96587267549e-06 0.79736622581)
(-1.9613520134e-05 -2.25026592972e-06 0.797366889979)
(-2.12136053697e-05 -2.61536266665e-06 0.797367524926)
(-2.06826622334e-05 -2.1509458223e-06 0.797368291277)
(-2.08860824044e-05 -2.23728594389e-06 0.797368934813)
(-1.86959480392e-05 -1.94453656115e-06 0.797369680714)
(-1.76589261535e-05 -1.90060513056e-06 0.797370235109)
(-1.42972264147e-05 -1.7164773884e-06 0.79737083874)
(-1.22805509323e-05 -1.65369276928e-06 0.797371081895)
(-8.24722385119e-06 -1.53035572057e-06 0.797367688388)
(-5.59657751079e-06 -1.48894285996e-06 0.797262906284)
(-1.46630482922e-06 -1.3397563806e-06 0.793863953634)
(-0 -0 0)
(-0.000110511277649 4.34147243356e-07 0.800192997922)
(-0.000689696538671 -3.41414360978e-05 0.799970690921)
(-0.000335414575091 -0.000146281628648 0.800228496711)
(-0.000294853946835 -6.34706084292e-05 0.800208495712)
(-0.000203583828208 -4.66672093608e-05 0.800277232923)
(-0.000160757772141 -2.86450986456e-05 0.800282117752)
(-0.000125290893721 -1.85582295604e-05 0.800306890964)
(-9.67110699179e-05 -1.39371425669e-05 0.800312353087)
(-7.73130604145e-05 -9.54972885279e-06 0.800322721037)
(-5.78508177754e-05 -7.82490723165e-06 0.800324803666)
(-4.45966141931e-05 -6.01908108681e-06 0.80032176902)
(-2.96986039717e-05 -5.35576718719e-06 0.800288939873)
(-1.87373997829e-05 -4.89423924233e-06 0.800093800115)
(-5.07693692791e-06 -4.73579954896e-06 0.797357395761)
(1.3459786447e-05 -0.000109689817446 0.800202745332)
(-0.000606674353167 -0.000595036134367 0.799869828904)
(-0.000222439469267 -0.000204310050177 0.800279389601)
(-0.000255071319056 -0.000178583081613 0.800209783532)
(-0.000200111678246 -9.18406292893e-05 0.800271904123)
(-0.00016860800866 -6.72150392726e-05 0.800280990521)
(-0.000137178708703 -4.1765260927e-05 0.800297233728)
(-0.000112154897006 -3.06207040247e-05 0.800310129464)
(-8.88895708539e-05 -2.16526941884e-05 0.800316633674)
(-7.20853164363e-05 -1.65854910917e-05 0.800324405327)
(-5.4642222689e-05 -1.2885374108e-05 0.800326303161)
(-4.23513806652e-05 -1.05861917578e-05 0.800322620564)
(-2.83124263149e-05 -9.21239029516e-06 0.800289641713)
(-1.78719360648e-05 -8.40221037251e-06 0.800094452544)
(-4.84373504876e-06 -7.67946990301e-06 0.797358144527)
(-7.09314349968e-05 -0.000667819299213 0.800012103959)
(-0.000191196153819 -0.000204586991066 0.80026972485)
(-0.000217818446621 -0.000202381340313 0.800185243563)
(-0.000198655913794 -0.000139149594868 0.800277169426)
(-0.000177576736092 -0.00010591725223 0.800255481998)
(-0.00015263645393 -7.57367179144e-05 0.800295898721)
(-0.000124288434811 -5.70026753684e-05 0.800295337994)
(-0.000105180589464 -4.08771235759e-05 0.800313918895)
(-8.27190702631e-05 -3.19408294085e-05 0.800317039998)
(-6.84995896856e-05 -2.36749236148e-05 0.800325705552)
(-5.16988461359e-05 -1.92917277497e-05 0.80032687742)
(-4.05318579482e-05 -1.5397616363e-05 0.800323284806)
(-2.70178623755e-05 -1.36372974728e-05 0.80029016297)
(-1.72607478115e-05 -1.2545463288e-05 0.80009487445)
(-4.63379185292e-06 -1.19573356505e-05 0.797358353626)
(-0.000193013910695 -0.000305620718277 0.800299719353)
(-0.000203262448611 -0.000251504946769 0.800210402943)
(-0.000160011110139 -0.000188542692055 0.800299718091)
(-0.000156012602857 -0.000148317177212 0.800268011733)
(-0.000135584997383 -0.000110989940177 0.800299972566)
(-0.000119334110654 -8.21657168954e-05 0.800299582103)
(-0.000102370092305 -6.25610715264e-05 0.800311856414)
(-8.70071947491e-05 -4.63306917635e-05 0.800317813801)
(-7.16875883792e-05 -3.63017373947e-05 0.800323402646)
(-5.93701767952e-05 -2.77499515662e-05 0.800328151732)
(-4.6133733644e-05 -2.26055175274e-05 0.800329560864)
(-3.60369364709e-05 -1.84541643208e-05 0.800324720628)
(-2.44071979217e-05 -1.63545052518e-05 0.800291525871)
(-1.53484423978e-05 -1.50531538249e-05 0.800096047128)
(-4.26643766105e-06 -1.4126077607e-05 0.797359692772)
(-9.02606475281e-05 -0.000301177339755 0.800208548447)
(-0.00010892298804 -0.000202530657026 0.800266056605)
(-0.000120060799519 -0.000170909549781 0.800256755671)
(-0.000121422387055 -0.000129236786188 0.800292423891)
(-0.000111216518917 -0.000103540173795 0.800288439413)
(-0.000104156752058 -7.93179888003e-05 0.800308774371)
(-8.83918011879e-05 -6.30092167727e-05 0.80031008512)
(-7.88730601149e-05 -4.83101649423e-05 0.800321361412)
(-6.40902097104e-05 -3.89747011032e-05 0.800323854932)
(-5.47189940927e-05 -3.0429316209e-05 0.800329784461)
(-4.21348202095e-05 -2.52838835142e-05 0.800330340955)
(-3.35459730927e-05 -2.08652036932e-05 0.800325709326)
(-2.25457677565e-05 -1.86949200469e-05 0.800292306658)
(-1.45081584069e-05 -1.73767689369e-05 0.800096735736)
(-3.9234246876e-06 -1.65626815494e-05 0.797360111564)
(-6.65608651233e-05 -0.000204600606628 0.800307030623)
(-8.23884839161e-05 -0.000172237031162 0.800282417827)
(-8.85935887216e-05 -0.000149277895449 0.800309744422)
(-8.87664453619e-05 -0.000117953708556 0.800300451083)
(-8.56631992698e-05 -9.91028674338e-05 0.800314464357)
(-7.89060911377e-05 -7.60998563751e-05 0.800315139231)
(-7.139957089e-05 -6.29040836206e-05 0.800322196561)
(-6.29848832704e-05 -4.83520859851e-05 0.800325712279)
(-5.37967447334e-05 -3.99673407917e-05 0.800329529125)
(-4.56006496756e-05 -3.14320638915e-05 0.80033247043)
(-3.62799457013e-05 -2.64736248123e-05 0.800333124053)
(-2.8630187081e-05 -2.20276720078e-05 0.800327378844)
(-1.96314921704e-05 -1.98587972751e-05 0.800293895434)