/*--------------------------------*- C++ -*----------------------------------*\
| =========                 |                                                 |
| \\      /  F ield         | OpenFOAM: The Open Source CFD Toolbox           |
|  \\    /   O peration     | Version:  2406                                  |
|   \\  /    A nd           | Website:  www.openfoam.com                      |
|    \\/     M anipulation  |                                                 |
\*---------------------------------------------------------------------------*/
FoamFile
{
    version     2.0;
    format      ascii;
    arch        "LSB;label=32;scalar=64";
    class       volVectorField;
    location    "0.01";
    object      U_0;
}
// * * * * * * * * * * * * * * * * * * * * * * * * * * * * * * * * * * * * * //

dimensions      [0 1 -1 0 0 0 0];

internalField   nonuniform List<vector> 
29768
(
(-0 -0 0)
(-0 -0 0)
(-0.000176338381736 -9.16471070852e-05 0.80028708001)
(-0.000765126181683 6.13516643644e-05 0.800264376528)
(-0.000326598350079 -0.000188585712325 0.800317783236)
(-0.000323898510467 -3.65162438533e-05 0.800337259974)
(-0.000192263386575 -5.51809837997e-05 0.800348078135)
(-0.000164664364621 -1.94085185606e-05 0.800353465142)
(-0.000113853511105 -2.0069550339e-05 0.800356428912)
(-9.29671982243e-05 -1.0626021548e-05 0.80035827116)
(-6.66040837928e-05 -9.59414000788e-06 0.800357883887)
(-5.15156864649e-05 -6.68974189242e-06 0.800351160193)
(-3.36769415827e-05 -6.06644988827e-06 0.800317547116)
(-2.1257238142e-05 -5.35706106455e-06 0.800122847523)
(-5.67938043378e-06 -5.16859406259e-06 0.797397455042)
(-0 -0 0)
(-0.000124231220652 -0.000136241517024 0.800285747339)
(-0.000710993682881 -0.000457989472309 0.800301937132)
(-0.000229560943176 -0.000181931641964 0.800316981299)
(-0.000297890078014 -0.000162603988405 0.80034340641)
(-0.000208732567106 -8.46995320225e-05 0.800348328453)
(-0.000171715557704 -5.94007691802e-05 0.800353160354)
(-0.00013733097416 -3.78894291052e-05 0.800356326067)
(-0.000104786838284 -2.69285698777e-05 0.800357713396)
(-8.49216656436e-05 -1.9609808127e-05 0.800359153806)
(-6.26350278218e-05 -1.50083306853e-05 0.800358321279)
(-4.85776355698e-05 -1.21011948432e-05 0.800351510157)
(-3.19578508179e-05 -1.04210120304e-05 0.800317777061)
(-2.0188588162e-05 -9.42257788944e-06 0.800123106239)
(-5.37410796225e-06 -8.55708606106e-06 0.797397771356)
(-1.31509264419e-05 -0.000143528699621 0.800316256457)
(-0.000472917284782 -0.000728040077094 0.800305408242)
(-0.000194319237544 -0.000207427903407 0.800297599556)
(-0.0003336178688 -0.000209306265719 0.800339214889)
(-0.00019574841119 -0.000147911133278 0.800340953501)
(-0.000213258454705 -9.67987843539e-05 0.800351665885)
(-0.000144071535788 -7.6163388864e-05 0.800353079148)
(-0.000131986770857 -4.89727860767e-05 0.800356935285)
(-9.55293576822e-05 -3.95195291667e-05 0.800357932157)
(-8.09970906828e-05 -2.74085206774e-05 0.80035940588)
(-5.89278348793e-05 -2.26126793304e-05 0.800358557108)
(-4.64865235228e-05 -1.74696392953e-05 0.800351734083)
(-3.04579894071e-05 -1.54842966003e-05 0.800318019082)
(-1.95208886406e-05 -1.40134002802e-05 0.800123326443)
(-5.15381402984e-06 -1.32909376228e-05 0.797397942363)
(4.01537043752e-05 -0.000707376747366 0.800311150046)
(-0.000106747062417 -0.000190825072113 0.800332212968)
(-0.0002271343144 -0.00031502406703 0.800350661368)
(-0.000144577804862 -0.000157802544383 0.800350821882)
(-0.000174627784793 -0.000160786233056 0.800355816894)
(-0.000134021374267 -9.57692547775e-05 0.800356549083)
(-0.000123222582614 -8.12501073121e-05 0.800357837631)
(-0.000100550563319 -5.42485330114e-05 0.800359058893)
(-8.31777322197e-05 -4.38445940203e-05 0.800359666281)
(-6.79441213523e-05 -3.19913109869e-05 0.800360386434)
(-5.24459698519e-05 -2.61943153205e-05 0.800359320632)
(-4.07085941673e-05 -2.09742391387e-05 0.800352273297)
(-2.74149026318e-05 -1.85476152024e-05 0.800318470643)
(-1.71280251742e-05 -1.69073161407e-05 0.800123748699)
(-4.75960350211e-06 -1.58118547507e-05 0.797398413236)
(-0.00022814183721 -0.000231661566862 0.800325943865)
(-0.000196434078516 -0.000290032344799 0.800356060847)
(-0.000153231716695 -0.000174019955135 0.800344356831)
(-0.000172226184778 -0.000169318826538 0.800356474553)
(-0.000130325785747 -0.000121603016353 0.80035290728)
(-0.00013267955248 -9.71273550554e-05 0.800357747553)
(-0.000102210868636 -7.50424244491e-05 0.800357189231)
(-9.45020166593e-05 -5.67961501898e-05 0.800359508929)
(-7.32336165005e-05 -4.55246190604e-05 0.800359805211)
(-6.32679886149e-05 -3.49286669932e-05 0.800360768463)
(-4.76247575461e-05 -2.89559951361e-05 0.800359677236)
(-3.80289902094e-05 -2.36310685485e-05 0.800352687011)
(-2.52711114506e-05 -2.11193763827e-05 0.800318902485)
(-1.62769924329e-05 -1.94519890191e-05 0.800124197825)
(-4.35930390827e-06 -1.84492515807e-05 0.797398855797)
(-5.9061602566e-05 -0.000329453186401 0.800353654808)
(-7.09714433011e-05 -0.000206799623554 0.800356598153)
(-0.000105370239251 -0.000208784254452 0.800358135948)
(-9.05357305951e-05 -0.000137094674796 0.800358693676)
(-0.000101652138228 -0.000127581603843 0.800359055397)
(-8.7303574526e-05 -8.83752249975e-05 0.800359677153)
(-8.28253007213e-05 -7.64257089495e-05 0.800360009909)
(-7.10082650149e-05 -5.56720573314e-05 0.800360834817)
(-6.1284385824e-05 -4.67373066847e-05 0.800361176765)
(-5.12941555293e-05 -3.58168915017e-05 0.800361618602)
(-4.08409805365e-05 -3.02799539642e-05 0.800360464454)
(-3.1987199361e-05 -2.49167946954e-05 0.800353290228)
(-2.1918596538e-05 -2.24410123126e-05 0.800319454961)
(-1.36290413695e-05 -2.0746458175e-05 0.800124701304)
(-3.91667665031e-06 -1.96908774295e-05 0.797399382285)
(-6.72556677627e-05 -0.000162543228849 0.800352452316)
(-7.87930572648e-05 -0.000171146046114 0.800359526937)
(-8.33268361501e-05 -0.000130520496977 0.800355448199)
(-9.05184169826e-05 -0.000120894878747 0.800359612638)
(-8.12555852234e-05 -9.51531224945e-05 0.800357824041)
(-8.14372026181e-05 -8.01036951761e-05 0.800360160997)
(-6.94414415282e-05 -6.46375999335e-05 0.800359876506)
(-6.47942531085e-05 -5.22752928799e-05 0.800361247839)
(-5.33539781822e-05 -4.30469023105e-05 0.800361490939)
(-4.67298661047e-05 -3.48522105405e-05 0.800362094475)
(-3.64176846504e-05 -2.94987212339e-05 0.800360952031)
(-2.93041926122e-05 -2.49633891198e-05 0.800353828826)
(-1.98083945714e-05 -2.26095645268e-05 0.800320019623)
(-1.27316287507e-05 -2.10929251406e-05 0.800125308714)
(-3.5061229892e-06 -2.00711316022e-05 0.797400028368)
(-2.91009879875e-05 -0.000174080817691 0.800358924542)
(-3.93353929221e-05 -0.000140391192227 0.80035994462)
(-5.50785060894e-05 -0.00013254672614 0.800359817007)
(-5.51573779364e-05 -0.000102153456566 0.800360537523)
(-6.08221362106e-05 -9.25385769884e-05 0.800360533453)
(-5.68206519292e-05 -7.11602585797e-05 0.800361233105)
(-5.49914756862e-05 -6.21087537594e-05 0.800361460291)
(-4.94135441995e-05 -4.84277835705e-05 0.80036214404)
(-4.38438100393e-05 -4.1540327291e-05 0.800362483357)
(-3.76719417143e-05 -3.3277833375e-05 0.800362806221)
(-3.06656824922e-05 -2.87498405649e-05 0.800361658912)
(-2.42852658512e-05 -2.43235424578e-05 0.800354418288)
(-1.68504656719e-05 -2.22145876711e-05 0.800320581291)
(-1.04616492978e-05 -2.08006765298e-05 0.800125826553)
(-3.08308012954e-06 -1.99361411582e-05 0.797400540142)
(-2.62139933624e-05 -0.000105580379568 0.800358387279)
(-3.7299707636e-05 -0.000105558970942 0.800360498296)
(-4.51410658293e-05 -8.95736955861e-05 0.800359153019)
(-5.05235014535e-05 -8.22326272487e-05 0.800360855042)
(-5.02549013248e-05 -6.90836339531e-05 0.800360357399)
(-5.10158554434e-05 -5.96970763102e-05 0.800361557093)
(-4.67063454536e-05 -5.01753897731e-05 0.800361660503)
(-4.42244963433e-05 -4.20566850061e-05 0.800362542598)
(-3.81909455192e-05 -3.56123884481e-05 0.800362888573)
(-3.38732542103e-05 -2.98017034165e-05 0.800363285296)
(-2.71993204006e-05 -2.57536739796e-05 0.800362168408)
(-2.19979665173e-05 -2.23429003237e-05 0.800354959894)
(-1.51145738127e-05 -2.04859894908e-05 0.800321163942)
(-9.6518157018e-06 -1.92824277643e-05 0.800126487481)
(-2.74693774548e-06 -1.84100150621e-05 0.79740127546)
(-1.5827693233e-05 -9.8931123685e-05 0.800360262471)
(-2.33012552981e-05 -8.76449997016e-05 0.800360780046)
(-3.17736281544e-05 -8.24992710463e-05 0.80036068548)
(-3.47052273977e-05 -6.91456470738e-05 0.800361265901)
(-3.83074263723e-05 -6.275796158e-05 0.800361392624)
(-3.79378495776e-05 -5.13864596371e-05 0.800361992635)
(-3.73672571728e-05 -4.538742258e-05 0.800362329328)
(-3.48629593405e-05 -3.70152558855e-05 0.800362920633)
(-3.15888255852e-05 -3.22700524214e-05 0.80036333482)
(-2.77653311122e-05 -2.66827971443e-05 0.800363594264)
(-2.29888129655e-05 -2.34189004731e-05 0.800362491036)
(-1.83906840811e-05 -2.0234222904e-05 0.800355242333)
(-1.28877309165e-05 -1.86673327731e-05 0.800321504961)
(-7.99910066671e-06 -1.76519562635e-05 0.80012692754)
(-2.40578379693e-06 -1.70373670531e-05 0.797401721155)
(-1.35926451796e-05 -6.43850987339e-05 0.800358825007)
(-2.09201794916e-05 -6.32329220289e-05 0.800359569212)
(-2.67158477532e-05 -5.64921602153e-05 0.800359248346)
(-3.08670091732e-05 -5.20228627952e-05 0.800360017518)
(-3.25798519419e-05 -4.54269442437e-05 0.800360075922)
(-3.37295807319e-05 -3.99184240376e-05 0.800360791147)
(-3.24111317464e-05 -3.44943117563e-05 0.800361138412)
(-3.11751900868e-05 -2.95359915218e-05 0.800361784224)
(-2.79077750048e-05 -2.55254599696e-05 0.800362231258)
(-2.5023174755e-05 -2.18014378384e-05 0.800362518927)
(-2.05929646386e-05 -1.91336617967e-05 0.800361474953)
(-1.67017084853e-05 -1.68715928102e-05 0.800354351993)
(-1.16505998422e-05 -1.56045199143e-05 0.800320987235)
(-7.37322118651e-06 -1.47790434736e-05 0.80012726863)
(-2.16998171027e-06 -1.41456541041e-05 0.797402389037)
(-1.01979665474e-05 -5.49975833013e-05 0.800352050154)
(-1.56139680438e-05 -5.038441504e-05 0.800352327629)
(-2.08371416738e-05 -4.784598531e-05 0.800352384553)
(-2.39519105513e-05 -4.15974434323e-05 0.80035280078)
(-2.65268761838e-05 -3.81179249211e-05 0.800353076837)
(-2.73285862098e-05 -3.21582008259e-05 0.800353577981)
(-2.72825471988e-05 -2.87349029502e-05 0.800354025663)
(-2.61677555326e-05 -2.39609463285e-05 0.800354549119)
(-2.40791244787e-05 -2.11394607619e-05 0.800355037655)
(-2.15373108761e-05 -1.7762168567e-05 0.800355286274)
(-1.80631918582e-05 -1.5750091057e-05 0.800354367999)
(-1.45657787846e-05 -1.37589565218e-05 0.800347650769)
(-1.02988336903e-05 -1.27596547094e-05 0.800315641736)
(-6.40227116009e-06 -1.21690099067e-05 0.800125601874)
(-1.95546608359e-06 -1.18207679879e-05 0.797402573059)
(-9.21991451938e-06 -3.27189039297e-05 0.800318160937)
(-1.44259438346e-05 -3.21162874937e-05 0.800318462967)
(-1.87633390119e-05 -2.92194142291e-05 0.800318494193)
(-2.211366928e-05 -2.71090351318e-05 0.80031892588)
(-2.41081179853e-05 -2.40428601851e-05 0.800319213484)
(-2.53443052288e-05 -2.13653603066e-05 0.80031971681)
(-2.50915715056e-05 -1.86924195278e-05 0.800320192382)
(-2.44213260807e-05 -1.6193262776e-05 0.800320713619)
(-2.23818088325e-05 -1.41335700484e-05 0.800321244786)
(-2.02205583478e-05 -1.21994739355e-05 0.800321559028)
(-1.6917993205e-05 -1.07894729388e-05 0.800321013346)
(-1.37316791213e-05 -9.59754920129e-06 0.800315653269)
(-9.68124435114e-06 -8.90409736596e-06 0.800287839755)
(-6.06493874172e-06 -8.50685147034e-06 0.800110204281)
(-1.82074626467e-06 -8.16176213259e-06 0.797399306453)
(-8.3101402162e-06 -2.3440641899e-05 0.800123467911)
(-1.29717092878e-05 -2.12283773524e-05 0.800123732834)
(-1.70086034614e-05 -2.06503102717e-05 0.80012380147)
(-2.01339101365e-05 -1.77768049043e-05 0.800124183518)
(-2.21793522394e-05 -1.66598303292e-05 0.800124508455)
(-2.34526612469e-05 -1.39119651365e-05 0.800124964349)
(-2.33770262973e-05 -1.26720118768e-05 0.800125485172)
(-2.29119340343e-05 -1.04598222909e-05 0.800125965891)
(-2.10454021218e-05 -9.36363079454e-06 0.800126572933)
(-1.91638628703e-05 -7.79898470312e-06 0.800126988853)
(-1.5999016482e-05 -6.97614043409e-06 0.800127299136)
(-1.31064225117e-05 -6.05938720056e-06 0.800125618837)
(-9.17894649649e-06 -5.60554191681e-06 0.800110206986)
(-5.81850652797e-06 -5.42779963381e-06 0.799975218471)
(-1.7377580271e-06 -5.30188593472e-06 0.797295533904)
(-7.95370133914e-06 -4.48964927876e-06 0.797397993525)
(-1.26153997717e-05 -5.04976434349e-06 0.797398419021)
(-1.62216263763e-05 -4.17214659168e-06 0.797398365539)
(-1.95846736922e-05 -4.39145402688e-06 0.797398865098)
(-2.12011265146e-05 -3.62659577187e-06 0.797399144273)
(-2.28651479123e-05 -3.57418454913e-06 0.797399659506)
(-2.24256150461e-05 -2.98450239605e-06 0.797400200104)
(-2.24014411965e-05 -2.79737430081e-06 0.797400691383)
(-2.0251422042e-05 -2.3809302358e-06 0.797401363473)
(-1.87929200366e-05 -2.17766052819e-06 0.797401791764)
(-1.54247002248e-05 -1.90832717794e-06 0.797402424313)
(-1.29027945604e-05 -1.76928798987e-06 0.797402597284)
(-8.84643001085e-06 -1.61710005884e-06 0.797399313512)
(-5.72437476097e-06 -1.58759249757e-06 0.797295537144)
(-1.63936586288e-06 -1.51652913152e-06 0.793914020303)
(0 0 0)
(-0 -0 0)
(-9.70636214391e-05 -4.76181358245e-05 0.800229067563)
(-0.000622206238808 9.34890001875e-05 0.800321767814)
(-0.000234337770754 -0.000178288327072 0.800234819777)
(-0.000280826685797 -2.55885843471e-05 0.800306163245)
(-0.000155130221086 -5.79306387447e-05 0.800304473448)
(-0.000149777119078 -1.79692354346e-05 0.8003251324)
(-9.80245515263e-05 -2.21388431591e-05 0.800328595191)
(-8.69803248258e-05 -1.08478728433e-05 0.800335407887)
(-5.93352527317e-05 -1.0638279502e-05 0.800336408112)
(-4.90673290615e-05 -7.08204615369e-06 0.800331487985)
(-3.02482541378e-05 -6.65478192453e-06 0.800298343815)
(-2.08587549433e-05 -6.03529230785e-06 0.800103126164)
(-4.40921272839e-06 -6.22613085325e-06 0.797377147856)
(-0 -0 0)
(-0.000126538520054 -0.000157192041739 0.800243204288)
(-0.000617596541175 -0.000368563973137 0.800380466436)
(-0.000136186594019 -0.000117458075383 0.800255724447)
(-0.000242724717935 -0.000134184298763 0.800291706558)
(-0.000165352796399 -6.64826734833e-05 0.800305778867)
(-0.000142356498544 -5.19740298351e-05 0.800315612522)
(-0.000119987290679 -3.24480744645e-05 0.800326859707)
(-9.01729729134e-05 -2.47616416677e-05 0.80033107963)
(-7.77563943393e-05 -1.78376865722e-05 0.800336344249)
(-5.54187816866e-05 -1.43225729185e-05 0.80033716162)
(-4.56229273147e-05 -1.15050899125e-05 0.800331955891)
(-2.84536551417e-05 -1.01987941134e-05 0.800298697051)
(-1.95001270418e-05 -9.26402394535e-06 0.800103448756)
(-4.11647667144e-06 -8.58835189133e-06 0.797377445651)
(-1.88604366644e-05 -9.34514633117e-05 0.800240475347)
(-0.000354675172981 -0.000605007146078 0.800385437218)
(-0.000144317392935 -0.000155445929481 0.800204310967)
(-0.000285560294759 -0.00017397047399 0.800306411137)
(-0.000151700679157 -0.000129663799956 0.800277855646)
(-0.000191705813818 -8.19315922767e-05 0.800317325281)
(-0.000119980106336 -7.19099965752e-05 0.800315436891)
(-0.00012239746523 -4.36526218402e-05 0.800329679493)
(-8.33850921767e-05 -3.87328123762e-05 0.800331867803)
(-7.64943861638e-05 -2.55713700632e-05 0.800337295304)
(-5.28366319018e-05 -2.24899456345e-05 0.800337736452)
(-4.44898971939e-05 -1.6854631485e-05 0.800332441536)
(-2.74618173957e-05 -1.54524950861e-05 0.80029910862)
(-1.92284174805e-05 -1.39741486926e-05 0.800103783891)
(-4.00027172197e-06 -1.36241236844e-05 0.797377716104)
(5.56812800536e-05 -0.000555809947991 0.800408391806)
(-3.50901643322e-05 -0.000132269152348 0.800257308869)
(-0.000179818958327 -0.000270863479063 0.80032397474)
(-9.20933662591e-05 -0.000115282757007 0.800294292672)
(-0.000143083889107 -0.000143286074087 0.800318177957)
(-0.000105497727801 -7.71335651097e-05 0.800319211597)
(-0.000103695928034 -7.49114053967e-05 0.800327499702)
(-8.67482961833e-05 -4.67634619761e-05 0.800331911247)
(-7.20717142243e-05 -4.14482391301e-05 0.800335765109)
(-6.14495581398e-05 -2.89759621211e-05 0.800338675524)
(-4.64579764397e-05 -2.51688987176e-05 0.800339230599)
(-3.78105544709e-05 -1.97131898859e-05 0.800333258837)
(-2.440114002e-05 -1.79864283558e-05 0.800299860396)
(-1.6322984534e-05 -1.62741903616e-05 0.800104397268)
(-3.7364390882e-06 -1.54440626768e-05 0.797378320764)
(-0.00020835250486 -0.000149341272098 0.800221946832)
(-0.000166915511429 -0.000238845468253 0.800291991281)
(-0.000136453812571 -0.00012757337424 0.800276995139)
(-0.000155775968387 -0.000140754526384 0.80031379151)
(-0.000112569664078 -0.00010208099766 0.800309375627)
(-0.000122982864519 -8.3178659716e-05 0.80032605568)
(-8.96269421675e-05 -6.79002213881e-05 0.800326963871)
(-8.89362274953e-05 -5.04602352381e-05 0.800334588401)
(-6.55850093339e-05 -4.29000975405e-05 0.80033652763)
(-6.01448686606e-05 -3.21165759113e-05 0.800339940628)
(-4.33057578322e-05 -2.78826030114e-05 0.800339974191)
(-3.65179156227e-05 -2.2377687253e-05 0.80033402307)
(-2.30434030254e-05 -2.05454601857e-05 0.800300488573)
(-1.60759739052e-05 -1.88328795485e-05 0.800104975478)
(-3.48661331804e-06 -1.80888445793e-05 0.797378811403)
(-4.51473530104e-05 -0.000290437352624 0.800333830463)
(-4.6272066945e-05 -0.000174438232125 0.800309005149)
(-8.68437679549e-05 -0.000189247284073 0.800328147049)
(-6.62599773878e-05 -0.000114636248422 0.800320232681)
(-8.51703930173e-05 -0.00011818551892 0.800329726368)
(-7.10944035134e-05 -7.609411873e-05 0.800330206792)
(-7.09419888826e-05 -7.20711081292e-05 0.800334921259)
(-6.17410705992e-05 -4.96091372211e-05 0.800337158539)
(-5.37128688075e-05 -4.46369933545e-05 0.80033982681)
(-4.63580096071e-05 -3.29123787515e-05 0.800341480916)
(-3.64327686573e-05 -2.91672365965e-05 0.800341524105)
(-2.96175339148e-05 -2.35023800825e-05 0.800334994594)
(-1.96574386711e-05 -2.17112630001e-05 0.800301389774)
(-1.2946514905e-05 -1.99117734269e-05 0.800105735375)
(-3.19224274038e-06 -1.91077044623e-05 0.797379553722)
(-6.59895384888e-05 -0.000120222977643 0.800300153775)
(-7.28105128539e-05 -0.000142319663471 0.800315337347)
(-7.81288456279e-05 -0.000102669270805 0.800315025717)
(-8.47626565927e-05 -0.000102215146994 0.80032618556)
(-7.40727412745e-05 -8.08217910663e-05 0.800326970588)
(-7.68456696574e-05 -6.94636596654e-05 0.800333635394)
(-6.31669853542e-05 -5.80054122346e-05 0.800335276354)
(-6.15011995348e-05 -4.66598788823e-05 0.800339119594)
(-4.88734483282e-05 -4.00140992916e-05 0.800340722401)
(-4.46014642783e-05 -3.1997889233e-05 0.800342678584)
(-3.36124664364e-05 -2.80312609283e-05 0.800342350958)
(-2.82148551965e-05 -2.35129652906e-05 0.800335836137)
(-1.83337417469e-05 -2.17500678788e-05 0.800302117642)
(-1.26194066213e-05 -2.01775460541e-05 0.800106428093)
(-2.93816870823e-06 -1.92863629131e-05 0.797380173174)
(-2.46855200742e-05 -0.000161880388683 0.800333797768)
(-3.00125746939e-05 -0.000126339216868 0.800328260383)
(-4.69412745811e-05 -0.000124275913757 0.800334198803)
(-4.41940597031e-05 -9.11877320811e-05 0.800332599544)
(-5.23761884799e-05 -8.75595673707e-05 0.800336555264)
(-4.82240234227e-05 -6.4094617884e-05 0.800337331668)
(-4.81343314613e-05 -5.9245559727e-05 0.800339940941)
(-4.37454199005e-05 -4.43437885981e-05 0.8003413544)
(-3.90365016636e-05 -3.98896054722e-05 0.800343084715)
(-3.43075925924e-05 -3.10352699866e-05 0.800344072419)
(-2.76874022807e-05 -2.77496608487e-05 0.800343664707)
(-2.25849794838e-05 -2.30935976928e-05 0.800336777942)
(-1.5337142545e-05 -2.14991003873e-05 0.800302990834)
(-1.00150052442e-05 -2.00140291439e-05 0.800107189351)
(-2.63328417291e-06 -1.9348803144e-05 0.797380904489)
(-2.58306212572e-05 -8.48938030279e-05 0.800327111206)
(-3.54074970394e-05 -8.97833935231e-05 0.800330635558)
(-4.301273771e-05 -7.44359287461e-05 0.800331604853)
(-4.80130151421e-05 -7.08864451512e-05 0.800335211258)
(-4.69791957431e-05 -5.99974191614e-05 0.800336505208)
(-4.85260670466e-05 -5.24930440307e-05 0.800339315469)
(-4.34201846869e-05 -4.52493395142e-05 0.800340721055)
(-4.21449916624e-05 -3.78485806596e-05 0.800342730254)
(-3.55531327108e-05 -3.30337777871e-05 0.800343941941)
(-3.24004495155e-05 -2.74628591637e-05 0.800345038054)
(-2.54280449303e-05 -2.4374605709e-05 0.800344414473)
(-2.1232063698e-05 -2.1051306464e-05 0.800337525488)
(-1.42132731691e-05 -1.96263960351e-05 0.80030367597)
(-9.62186270099e-06 -1.83714619027e-05 0.800107869275)
(-2.42371568053e-06 -1.75397382051e-05 0.797381540733)
(-1.4168166161e-05 -9.40953444111e-05 0.800337964633)
(-1.95847810355e-05 -8.13075690201e-05 0.800336773712)
(-2.80593825345e-05 -7.86660116105e-05 0.800338932796)
(-2.97481728243e-05 -6.38029196583e-05 0.800338936571)
(-3.39925781604e-05 -6.00539445599e-05 0.800340802503)
(-3.34841325197e-05 -4.75584993573e-05 0.800341574247)
(-3.35029053548e-05 -4.3617247358e-05 0.800343095694)
(-3.15411395114e-05 -3.45666853541e-05 0.800344089255)
(-2.86505843607e-05 -3.11538006152e-05 0.800345236977)
(-2.5605597446e-05 -2.52227165938e-05 0.800345857126)
(-2.10807366077e-05 -2.27035241593e-05 0.80034515095)
(-1.72709052438e-05 -1.93767235445e-05 0.80033807337)
(-1.19621068778e-05 -1.81367507292e-05 0.800304233526)
(-7.78098617026e-06 -1.70992720231e-05 0.8001084876)
(-2.16198002668e-06 -1.66320485105e-05 0.797382155417)
(-1.32924845736e-05 -5.42066346178e-05 0.800335842988)
(-2.00276429145e-05 -5.47348404549e-05 0.800336834541)
(-2.55699362719e-05 -4.84846781634e-05 0.800337574759)
(-2.9467000947e-05 -4.5493513661e-05 0.80033894614)
(-3.08053642166e-05 -4.00959941732e-05 0.800339937402)
(-3.21602469321e-05 -3.54834992474e-05 0.800341291455)
(-3.04940309943e-05 -3.13091315654e-05 0.800342341104)
(-2.97413333122e-05 -2.67947290305e-05 0.800343501508)
(-2.62512108983e-05 -2.37382616767e-05 0.800344411302)
(-2.39494545175e-05 -2.02183824001e-05 0.800345053218)
(-1.94359270799e-05 -1.81447727226e-05 0.800344263992)
(-1.61426968031e-05 -1.59733031333e-05 0.80033728362)
(-1.11043510097e-05 -1.49749717419e-05 0.800303749281)
(-7.39132125299e-06 -1.41066095431e-05 0.800108793381)
(-2.0039902676e-06 -1.34620825537e-05 0.797382686552)
(-9.48854532749e-06 -5.30511570085e-05 0.800332151907)
(-1.40350709497e-05 -4.76459055602e-05 0.800332018004)
(-1.90524393943e-05 -4.62025866582e-05 0.800332946952)
(-2.16213555364e-05 -3.92098308023e-05 0.800333308071)
(-2.42581876133e-05 -3.68928433107e-05 0.800334332609)
(-2.49717362563e-05 -3.03741331109e-05 0.800335008251)
(-2.50667078231e-05 -2.79214837728e-05 0.800336005161)
(-2.4205579377e-05 -2.28004427832e-05 0.80033677406)
(-2.22650808765e-05 -2.06531180033e-05 0.800337615571)
(-2.01522863974e-05 -1.70919640176e-05 0.800338066588)
(-1.68330492315e-05 -1.54722212618e-05 0.800337330143)
(-1.38328220449e-05 -1.33932433749e-05 0.800330681133)
(-9.73325013768e-06 -1.25583004e-05 0.800298479391)
(-6.32278764349e-06 -1.19669063793e-05 0.800107214501)
(-1.8298955318e-06 -1.17114382639e-05 0.797382966774)
(-8.93080701942e-06 -2.75239075059e-05 0.800298127285)
(-1.37709186398e-05 -2.7636601145e-05 0.800298491702)
(-1.78884268583e-05 -2.49888498708e-05 0.800299029742)
(-2.10252268927e-05 -2.35908999728e-05 0.80029970372)
(-2.28165124543e-05 -2.11172357495e-05 0.80030046399)
(-2.4069740214e-05 -1.89558793527e-05 0.800301272047)
(-2.36712406671e-05 -1.6924416352e-05 0.800302110907)
(-2.32136518164e-05 -1.47403616223e-05 0.800302906922)
(-2.11123709902e-05 -1.3189752563e-05 0.800303672973)
(-1.92872552983e-05 -1.14304922345e-05 0.800304180306)
(-1.60047259856e-05 -1.03402237863e-05 0.800303747673)
(-1.32177640024e-05 -9.22628229754e-06 0.800298451645)
(-9.23794393107e-06 -8.65147328187e-06 0.80027045256)
(-6.02700717257e-06 -8.19982601642e-06 0.800091700037)
(-1.70864190719e-06 -7.79015202907e-06 0.797379577767)
(-7.83426520323e-06 -2.35143132748e-05 0.800103243754)
(-1.1913958569e-05 -2.08009925056e-05 0.80010334429)
(-1.57249187262e-05 -2.07232802433e-05 0.800103913225)
(-1.8470004445e-05 -1.73658025892e-05 0.800104321456)
(-2.04282170588e-05 -1.67541753694e-05 0.800105073671)
(-2.16304521475e-05 -1.36369980046e-05 0.800105673775)
(-2.15505944888e-05 -1.28142391148e-05 0.800106490325)
(-2.12874610571e-05 -1.03704981143e-05 0.800107140924)
(-1.94679669206e-05 -9.56079644336e-06 0.800107905086)
(-1.79638271891e-05 -7.87282646788e-06 0.800108454709)
(-1.48835654982e-05 -7.20788989882e-06 0.800108813522)
(-1.24498154858e-05 -6.22735295058e-06 0.800107198127)
(-8.62523109134e-06 -5.80611656111e-06 0.80009171282)
(-5.71181168334e-06 -5.57877185347e-06 0.799956332924)
(-1.61443925727e-06 -5.43976767193e-06 0.797275808223)
(-7.55902739621e-06 -2.1043014517e-06 0.79737692095)
(-1.16506775839e-05 -3.20520527608e-06 0.79737717095)
(-1.50564437735e-05 -2.20467816502e-06 0.797377605424)
(-1.80343124666e-05 -2.95884956244e-06 0.797378107609)
(-1.95066896206e-05 -2.24750185305e-06 0.797378764867)
(-2.11016453338e-05 -2.60838942304e-06 0.797379397129)
(-2.05739456278e-05 -2.14603873947e-06 0.797380156481)
(-2.077737816e-05 -2.23044323716e-06 0.79738079705)
(-1.86001595593e-05 -1.93859657458e-06 0.797381536746)
(-1.75676009576e-05 -1.89398392895e-06 0.79738208852)
(-1.42256908963e-05 -1.71032504903e-06 0.797382687661)
(-1.22173398581e-05 -1.64729970488e-06 0.797382931614)
(-8.20744350771e-06 -1.52460083406e-06 0.79737958026)
(-5.56810855392e-06 -1.48308370684e-06 0.797275796198)
(-1.46000686691e-06 -1.33550592637e-06 0.793894253418)
(-0 -0 0)
(-0.000110007159475 3.41009163102e-07 0.80019171709)
(-0.000687124394451 -3.46990520753e-05 0.79997053487)
(-0.000334399778616 -0.000145524076319 0.800227475271)
(-0.000293712104267 -6.31669471422e-05 0.800207482725)
(-0.000202844909419 -4.6373866869e-05 0.800275922)
(-0.000160097597567 -2.84850869342e-05 0.80028073698)
(-0.000124791408019 -1.84405452432e-05 0.800305392174)
(-9.62946068356e-05 -1.38547588023e-05 0.800310811379)
(-7.69875464499e-05 -9.48892791161e-06 0.800321133838)
(-5.75931464924e-05 -7.77654184299e-06 0.800323221429)
(-4.44023650735e-05 -5.98009531653e-06 0.800320277833)
(-2.95622888716e-05 -5.3210338505e-06 0.800287820056)
(-1.86551364534e-05 -4.86092239995e-06 0.800094184084)
(-5.05180402274e-06 -4.70288968998e-06 0.79736929107)
(1.33345080469e-05 -0.000109228968577 0.800201469035)
(-0.000604545416208 -0.000593047576996 0.799870032904)
(-0.000222380026908 -0.000203757880852 0.80027803291)
(-0.000254482012792 -0.000177840802786 0.80020872535)
(-0.000199562052203 -9.14275148113e-05 0.800270598932)
(-0.000168062895309 -6.68872538984e-05 0.800279623035)
(-0.000136671064828 -4.15601076133e-05 0.800295779395)
(-0.000111727993949 -3.04655700895e-05 0.8003086047)
(-8.85239529884e-05 -2.15428562066e-05 0.800315071347)
(-7.17893346717e-05 -1.64989908703e-05 0.800322807131)
(-5.44057508872e-05 -1.28178717672e-05 0.800324713691)
(-4.21704061811e-05 -1.05290011399e-05 0.80032112437)
(-2.81859141316e-05 -9.16165623469e-06 0.80028851836)
(-1.7795122077e-05 -8.35456199496e-06 0.800094832829)
(-4.82087861412e-06 -7.63695175198e-06 0.79737003561)
(-7.12063515757e-05 -0.000665386580331 0.800011679853)
(-0.000191262220851 -0.000204681344651 0.80026834715)
(-0.00021739380295 -0.000202019143686 0.800184198102)
(-0.000198264505123 -0.000138793366101 0.800275824466)
(-0.000177005664203 -0.000105565884076 0.800254208483)
(-0.000152138943839 -7.54372457362e-05 0.800294459633)
(-0.000123804775044 -5.67673450093e-05 0.800293879023)
(-0.000104776613607 -4.06934228599e-05 0.800312375574)
(-8.23707301853e-05 -3.17961086947e-05 0.800315472096)
(-6.82167643801e-05 -2.35619974136e-05 0.80032410098)
(-5.14720609521e-05 -1.91994158427e-05 0.800325284077)
(-4.03579616442e-05 -1.53208772024e-05 0.800321785201)
(-2.68956153804e-05 -1.35680791194e-05 0.800289036475)
(-1.71859421593e-05 -1.24788777663e-05 0.800095252367)
(-4.61103014062e-06 -1.18933075243e-05 0.797370243919)
(-0.000191913387032 -0.000305074900715 0.800298352623)
(-0.000202480657481 -0.000250949020981 0.800209341998)
(-0.00015952567951 -0.000188162143601 0.80029826359)
(-0.000155529723067 -0.000147846497668 0.800266692349)
(-0.000135135741821 -0.000110618479927 0.800298503198)
(-0.000118917973415 -8.18378217595e-05 0.800298111032)
(-0.000101980384322 -6.23090536299e-05 0.800310319045)
(-8.66714422842e-05 -4.61269904515e-05 0.800316245465)
(-7.13928553995e-05 -3.61426192428e-05 0.800321803183)
(-5.91272398132e-05 -2.76216860827e-05 0.800326532738)
(-4.5935825396e-05 -2.25012457322e-05 0.800327953768)
(-3.58847684335e-05 -1.83654339375e-05 0.800323212912)
(-2.42997582742e-05 -1.62745327657e-05 0.800290392202)
(-1.52838754975e-05 -1.49767121741e-05 0.800096418263)
(-4.24666243715e-06 -1.40552112091e-05 0.797371574835)
(-8.97311077627e-05 -0.000300077084148 0.800207543394)
(-0.000108552994657 -0.000201975946655 0.800264791305)
(-0.000119608363053 -0.000170409493041 0.800255474068)
(-0.000121037666978 -0.000128832655306 0.800290997367)
(-0.000110795465376 -0.00010318272499 0.80028700839)
(-0.000103781124341 -7.90185089874e-05 0.800307257596)
(-8.80333121827e-05 -6.27612189911e-05 0.800308550269)
(-7.85621800438e-05 -4.81077033049e-05 0.800319775096)
(-6.38178343496e-05 -3.88087957593e-05 0.800322251411)
(-5.44919263453e-05 -3.02940102265e-05 0.800328157035)
(-4.19503138895e-05 -2.51705368909e-05 0.800328729268)
(-3.340265452e-05 -2.07680179929e-05 0.800324196339)
(-2.2444624712e-05 -1.86059858104e-05 0.800291168488)
(-1.44458689662e-05 -1.72908647882e-05 0.800097103077)
(-3.90430877604e-06 -1.64807035597e-05 0.797371992175)
(-6.61217266201e-05 -0.000203964104952 0.800305581066)
(-8.19955220615e-05 -0.000171644161403 0.800281059082)
(-8.82040035339e-05 -0.000148816213704 0.800308232679)
(-8.84194321236e-05 -0.000117523972693 0.800298978355)
(-8.53193059653e-05 -9.87478381155e-05 0.800312914157)
(-7.85993127247e-05 -7.57946915815e-05 0.80031358596)
(-7.11069006558e-05 -6.26539068425e-05 0.80032060265)
(-6.27310596557e-05 -4.81452058093e-05 0.800324101322)
(-5.35693825441e-05 -3.97976690203e-05 0.800327896521)
(-4.54112427664e-05 -3.1292074221e-05 0.800330827932)
(-3.61231462873e-05 -2.63561081504e-05 0.800331497735)
(-2.85093213231e-05 -2.19259619172e-05 0.800325856562)
(-1.95454851564e-05 -1.97656603548e-05 0.800292748744)