/*--------------------------------*- C++ -*----------------------------------*\
| =========                 |                                                 |
| \\      /  F ield         | OpenFOAM: The Open Source CFD Toolbox           |
|  \\    /   O peration     | Version:  2406                                  |
|   \\  /    A nd           | Website:  www.openfoam.com                      |
|    \\/     M anipulation  |                                                 |
\*---------------------------------------------------------------------------*/
FoamFile
{
    version     2.0;
    format      ascii;
    arch        "LSB;label=32;scalar=64";
    class       volScalarField;
    location    "0.01";
    object      k;
}
// * * * * * * * * * * * * * * * * * * * * * * * * * * * * * * * * * * * * * //

dimensions      [0 2 -2 0 0 0 0];

internalField   nonuniform List<scalar> 
29768
(
1.13867615131e-11
1.9100736258e-05
1.65360937841e-11
1.04224113388e-12
2.00489570679e-06
4.37427650512e-08
4.60468334629e-08
0.000110956594284
2.75501650637e-12
8.84654549962e-15
3.99152425291e-14
1e-15
1.09462065261e-14
1e-15
8.48193229607e-15
1e-15
2.21966265357e-14
1e-15
2.3090384223e-14
1e-15
1.62102504256e-13
3.58917740216e-11
2.66271368955e-12
4.90431998519e-14
1.67799177797e-14
0.00857064917975
3.70535933099e-14
0.0100999191643
7.04037840049e-11
0.00258600490374
1.15460995765e-15
2.90589934702e-10
1.4320418306e-14
0.00669722293208
1.12504033831e-11
1e-15
0.00193807369686
7.4734425836e-15
3.16816640392e-14
1.53775441616e-15
0.0080662268474
1.84503686998e-15
0.00820804112975
2.18328427538e-15
8.96700975381e-14
1e-15
1e-15
3.42739252295e-13
1.46199315432e-10
1.19716031964e-10
3.50404053051e-14
0.00896656322145
2.50024380695e-11
0.00514509911093
1e-15
4.66989928374e-11
1e-15
0.00576450471904
1.22111571808e-12
3.54784941873e-09
0.00121216168255
1.30179717126e-12
2.88155479084e-14
3.04519878394e-07
1.30674046502e-13
3.344433023e-06
8.05888276347e-11
1.99114770454e-11
1.42070655678e-09
7.1550981718e-10
3.4981082613e-06
4.13513028667e-14
1.70059496226e-13
0.000216565472202
9.70317136042e-07
5.12900471268e-08
9.60747025909e-09
6.2925922284e-10
0.000275042198131
8.98260951289e-09
1.74370129654e-12
4.49915075005e-11
3.8410334623e-09
3.55400123267e-15
1.63990788876e-07
1.88110094998e-07
1e-15
0.00176326007464
0.00715728581582
6.46447856383e-15
0.00207598244805
1.3331657073e-10
0.00118148706362
1.18404403346e-12
0.000838338042559
1.07755611223e-08
2.70097885568e-10
4.69715611257e-07
0.000934526409809
1.7607648824e-13
0.000296170597961
0.000847882145107
7.6845075889e-14
0.000399396991714
2.05571246348e-08
1.16469853878e-07
1.66777550292e-12
4.64605759333e-11
3.28831649517e-09
6.61666197977e-08
7.59162194e-13
3.19250066093e-08
1.29306048272e-10
2.55423549079e-08
3.39439390065e-08
7.05745629296e-12
1.08508802475e-08
6.58431328469e-09
0.0128167603672
2.4549050636e-08
0.000434668260996
8.3114706196e-10
3.4142985648e-09
5.11356602919e-05
0.0107769240697
7.68681071216e-10
0.00928297561293
1.01211677649e-09
6.12380101847e-10
0.000103445024339
1.09467051507e-10
0.000431075451366
8.12965716385e-08
0.0126745685196
3.47942600608e-10
0.0110129690074
1.86782496004e-08
0.012959340607
3.30915832546e-10
2.54475876139e-10
0.0185289691348
3.82147445614e-11
1.85681049784e-11
0.00702780162294
2.13231367753e-10
5.41609039263e-09
0.00345470267636
4.30917892803e-12
4.86910307783e-09
5.84181194501e-10
3.07387048455e-10
7.24243239536e-09
8.06814748385e-08
2.22135534028e-09
6.79936659014e-11
5.38716181242e-12
3.43919659502e-11
7.86858584077e-10
2.06370265699e-08
2.88016161451e-10
0.00560215112142
0.00955193086786
1.57228620433e-09
4.26568872332e-10
0.00376043245377
9.35157266562e-10
0.0044175124738
2.80385085058e-10
2.31152659414e-07
0.000943979258447
3.53536392257e-10
1.32108339412e-10
1.12370649966e-11
0.00962332056493
2.49398582505e-11
2.65981113543e-10
0.00171457520868
1.17315423188e-08
1.12957033549e-14
7.42582405072e-10
0.000903470789199
1.37528794536e-08
2.50138464016e-12
2.79318922875e-10
0.000744959398219
3.31638960872e-11
1.28493652579e-09
0.000453612565827
7.35987781305e-05
2.15249000915e-07
1e-15
1.99298896379e-11
1.75140058598e-10
1.35212242807e-14
1.55911440203e-11
1e-15
1e-15
2.24877146981e-15
0.000216866482119
7.74048604507e-13
2.34535271507e-14
0.00391792074769
3.29262289547e-15
2.50613633736e-13
1e-15
3.31290321725e-15
3.29394995063e-10
8.97643759344e-14
1.84954202108e-09
1.0474511313e-10
1.92090711547e-14
2.49463373781e-14
3.8364369818e-09
1.67321915412e-14
1e-15
0.0133218099365
3.21412674415e-14
1e-15
4.37399942028e-14
0.00309886411526
0.00150774662594
0.00019192280443
4.51227794158e-14
5.98422363468e-15
4.43673119438e-15
1.78470259135e-13
0.00466532532263
2.05811473369e-11
1.2352467907e-08
3.56904855401e-05
1.3997206265e-11
1.9403550752e-11
5.08998339749e-05
8.52022918016e-10
0.00365600480061
0.00153269744617
4.61177324986e-09
4.07511025443e-09
5.46032914149e-15
6.80132962078e-10
0.00225818755254
8.65561917608e-06
9.6844737546e-15
5.76551998369e-14
7.53727467059e-13
3.93715345332e-14
1.77584057182e-15
1e-15
1e-15
1e-15
1e-15
1e-15
1e-15
1e-15
1e-15
3.76994686319e-08
0.00824399288496
2.56116249094e-10
0.00662739627378
1.50043187587e-09
5.36945966067e-10
1.400435721e-08
5.08879687006e-10
0.000196647400952
0.000193340550298
5.56750909318e-05
2.23662001095e-08
1.09029203887e-13
5.10214436973e-05
2.11180219478e-12
8.02808886861e-11
9.34808804641e-05
3.54318780569e-10
0.000123528773239
7.70581317267e-05
7.88270561849e-05
0.000173092739517
4.69104348309e-09
5.78689076482e-12
2.38119776262e-14
0.000138337157376
9.59549827182e-11
0.00274008914382
0.00091594934523
3.55555587173e-09
1.13701730879e-08
0.0010620042804
4.10872920081e-08
9.16154613098e-09
0.000507702374605
3.7462888159e-09
0.000124557864368
3.71788424593e-08
2.31360601605e-09
2.26802544205e-09
6.40131239671e-05
0.000126635018094
1.06466734628e-06
0.000214776030673
3.85954150622e-09
0.000158133832073
1.50770309698e-05
5.14770517164e-08
0.000907826405614
4.50168785338e-06
2.89519550792e-07
0.00320920371349
0.00024525764071
5.0595633947e-11
5.23915508078e-05
0.00493992395782
0.000389512699899
0.00194065776947
1.07175674929e-07
5.7446545626e-14
2.69937185185e-09
1.74724877308e-12
7.89907810203e-10
7.12114466958e-10
0.00702595431133
0.00979855584412
5.64909533039e-10
8.70160022771e-11
0.00340277084947
1.38928783464e-10
1.68356186562e-09
1.38318328471e-12
1.71785299952e-11
0.000599581644189
3.50779890968e-09
0.00552235551915
3.63141238342e-12
2.51862049177e-09
5.08080837946e-11
0.00195532476062
3.61239793003e-11
0.00820111187737
7.57608993368e-11
2.28225284997e-11
5.03009313922e-11
0.00162820455076
1.04174898531e-09
2.99775163122e-10
0.0133327529687
0.000116106364021
0.000525082778818
3.09428005674e-09
6.74771780973e-11
2.33792284763e-08
0.0112554310001
0.0220225517616
8.45271202618e-11
4.25050890527e-10
0.0243183961378
7.39168074085e-09
2.62935447709e-10
2.18758677587e-08
6.99042909934e-09
9.39644985865e-11
3.69973070506e-08
9.18411051519e-08
0.00367500667124
1e-15
1e-15
0.000291870863776
0.000728737890962
1.53113531931e-05
0.00671997811549
9.57126731302e-06
0.000195079563216
0.00531093545712
0.00204580345846
0.00501981715228
0.0050133498308
3.89867851197e-05
0.00426177821294
0.00283095385591
3.08667431302e-11
3.04687683796e-07
3.55560789314e-09
4.20244330631e-08
2.6593375661e-07
4.05829995259e-08
4.12740365438e-08
0.00789665985983
0.00404258249197
2.1575135487e-06
7.43531740296e-09
0.000145696323554
1.09316236012e-05
3.25214721903e-08
3.73873508923e-07
5.71079780993e-06
0.0117478555924
0.00770773195655
0.00034815119663
0.0103173123742
2.35106415865e-06
1.08698937548e-08
3.2629584316e-08
0.000173198683378
1.49904049446e-06
2.48938130477e-06
3.53052635623e-07
0.000424225474384
0.000373958856656
0.000603840231757
0.000205179200288
0.000323341120572
0.0026072262943
0.000278566536508
0.000921541146134
0.00112659577624
0.000443309617573
0.000439412520617
1.54859889883e-11
1.10137876613e-08
6.28084602284e-09
8.00507650965e-12
1e-15
1.0455169253e-13
1.12119782488e-11
1e-15
1e-15
1e-15
1e-15
1.77491896215e-11
1.33531945618e-05
1.61854780488e-09
9.97257766797e-07
7.44239875359e-05
2.16715189723e-05
0.00632747643448
0.00971426288189
2.86085795671e-05
4.06508345443e-05
0.00933637287912
3.84946833535e-06
0.0107320913321
2.99722435163e-06
0.0105900234189
5.19789481341e-06
3.74197113708e-06
0.0116580667923
0.00707908272647
0.00691135314856
0.00864969983298
0.00698872902063
0.00918195382909
0.00373743756429
1.8840235128e-14
7.97573747399e-14
1.8821144497e-06
1.44643426597e-09
1.33713257773e-10
3.34415480889e-13
0.0139547282418
1.8697815128e-08
0.00192290341768
0.00520014651323
5.68685747238e-08
6.15504860293e-08
2.53953658359e-08
0.00138097113056
2.34170840803e-12
5.81071232057e-06
6.53568671814e-13
3.20492433528e-08
1.78344278236e-12
5.60559211772e-11
0.000326098222587
4.44374737259e-12
1.14301830051e-13
1e-15
1e-15
8.41680138335e-13
1.18540023219e-13
1.0746064038e-13
0.00824960745665
0.00419128267993
0.00924304219789
0.00744990126472
0.0098702009233
0.00167864540796
2.29892543999e-10
1e-15
8.64005286591e-13
0.00776847901635
0.00785353848314
0.00712348053987
0.00873856669196
5.02000303211e-13
3.10517954901e-14
4.99901874054e-13
0.0120630548168
0.0100575940938
0.0107416925827
0.0107925073986
2.18821623932e-06
2.06213517534e-06
0.00721500902493
0.00866060881969
1.77895200227e-06
2.03206422562e-06
0.00762989077184
0.00647381257854
0.000499581192298
0.00738576999353
2.28272255336e-05
0.00926452867748
4.80893045592e-08
0.0032187345606
1.74837921556e-07
0.00913348150445
2.13341828953e-07
2.76407814021e-07
0.00569389073329
1.8273536005e-07
6.70724410876e-05
6.92207749658e-05
0.00174710166605
0.0113841328705
1.17723614007e-06
1.32133447324e-07
0.00572778381098
0.0112025943432
0.0044596816105
1.17422203298e-08
2.56424298786e-08
7.60545504628e-08
8.36594507342e-07
0.00747255716731
0.000111668151642
1.85241864847e-10
4.4511643411e-13
5.15497719088e-11
6.72434504166e-05
3.57195887494e-12
5.58999476002e-12
5.40628525405e-06
1.0956511704e-09
7.04049669741e-07
2.53002520666e-05
2.68159863446e-13
3.76386827151e-11
3.04077138466e-06
1.87025126453e-07
7.29761530623e-06
5.82974636451e-07
2.55259092213e-06
6.40836595658e-09
0.00264188233372
2.8069626636e-06
1.47512590775e-08
2.3088597203e-07
1.29447895093e-07
4.59962009489e-05
1.07132964637e-08
1.6102131007e-06
2.71988096661e-09
1.49237893148e-07
6.30746954637e-13
2.26751498347e-08
7.89029527133e-09
2.04740132323e-09
2.8439191264e-11
1.42351283192e-10
2.95992770635e-10
6.67352805539e-14
5.89621095368e-08
4.23428968523e-08
4.13373584777e-08
8.70904610214e-09
4.80400360647e-11
3.23289020594e-09
1.05041751248e-11
3.33221581493e-12
6.78208342699e-08
6.28485321265e-08
1.42770005841e-10
3.48535091132e-12
5.40614912041e-07
7.69578475213e-11
1.71260575311e-10
2.04270073902e-06
1.80374458919e-06
3.19354689408e-10
8.42880824541e-11
6.73685858189e-07
6.11477345948e-10
0.000224255242104
1.67949147008e-08
9.78924415884e-06
5.77657232438e-09
2.95714117413e-08
6.70074916858e-07
2.84666030331e-11
5.91933064814e-07
2.53220283119e-06
8.38510270226e-08
9.01289416987e-10
3.72710897177e-08
4.00443596449e-07
1.36784206682e-11
1.75627223223e-08
2.95887912652e-13
1.81185879527e-08
1.68086457198e-12
4.53468683708e-11
5.71583075945e-11
0.00012204826836
2.6528402372e-10
0.000202702296461
3.47374361245e-09
5.09737085964e-10
1.38359784891e-09
2.48138492818e-12
6.04548704866e-07
3.0319914496e-07
2.26633728729e-11
1.34898960802e-10
1.2804031139e-07
1.58621943218e-10
1.13818833524e-07
9.09430414669e-12
2.28215202384e-07
1.75295644579e-09
9.56469553106e-11
1.78570209045e-07
6.16892944639e-09
0.000581823578914
6.08459495077e-08
0.00231965348984
5.02483025599e-09
1.06487132918e-08
3.05546745714e-09
0.00552240496323
2.64682025777e-08
1.14204060427e-09
0.00463462268483
1.24737935258e-08
0.00463815082756
0.00456842310874
7.44956328906e-11
2.07849216496e-10
3.77000082504e-11
0.00150707610529
2.05586724621e-08
0.00381998741106
6.12566618419e-11
0.00302947727275
0.00159813339548
4.87318218882e-12
2.53323987824e-09
1.25997367189e-10
0.00328718176091
2.32476244947e-09
0.00295515345846
0.00128705302888
1.45407912703e-09
4.28846133529e-09
1.51705126695e-09
0.00301572751173
1.89877313666e-09
0.000894525784639
6.04615813518e-09
0.00088480422217
1.22119005199e-08
5.64290253937e-09
0.000791502682667
2.88969342367e-07
4.76774158996e-10
2.61350352125e-07
1.35473419683e-06
2.68591995057e-10
6.61852292615e-09
0.000518999438482
4.08812511666e-07
0.00095478166872
5.28927925249e-08
1.69216666895e-06
6.71664430026e-09
5.386495187e-08
0.000710132632658
5.51888883772e-09
0.000501205929755
9.97540825658e-09
0.000300496381493
4.45678698045e-09
1.21842783738e-08
0.000455605643407
3.42260239393e-10
0.000853578124098
3.08178817266e-10
0.000566469427299
3.73635365028e-10
3.4309941334e-09
1.60895102895e-08
4.20172395594e-10
4.79004468725e-08
6.05823895015e-07
3.45962809837e-09
5.30679811867e-09
1.73029659256e-07
6.20958433897e-11
1.53997459255e-06
3.55329405783e-10
1.48013705554e-06
4.24995902473e-08
7.31879611527e-05
0.000101088096532
0.0134012697787
6.89571854566e-07
3.0208702202e-05
0.000111687453064
5.17330614536e-07
1.10688543417e-05
1.2140001192e-05
0.00990954410738
2.0970787682e-07
7.36225454108e-05
5.27284120914e-05
5.41396677826e-06
0.000373279562618
8.95376851427e-08
0.000142014512549
1.92147564855e-06
9.84942611753e-07
0.000993021540908
7.13505680434e-06
0.0102724367631
0.0119894563716
5.99157995948e-06
1.49657649667e-05
3.24333476571e-05
0.0109742061488
2.91601353109e-05
5.29501216616e-05
0.000872538407534
0.0123422053319
3.80192224377e-06
8.61769994279e-06
0.00805583694257
4.31466823177e-06
6.79061505994e-05
2.14125111125e-07
7.27848670891e-05
4.12604246119e-06
2.43093968697e-05
1.31601161035e-07
0.000176889248416
1.43515842966e-06
8.92393749675e-07
6.84253499332e-05
5.55803265328e-07
4.09745205489e-06
9.76262010806e-05
0.000274897605841
9.46596689717e-07
1.94528491749e-06
0.000122542735773
2.79984208862e-05
0.0115048830839
0.000172541578527
0.0139892232098
8.6935839134e-05
9.39052959788e-05
0.0128453654282
4.21329111418e-06
0.0108786280144
0.0122915420851
2.6578096796e-06
4.5196768123e-06
6.88921399915e-06
0.0121312414475
4.77561715985e-06
0.000126695161192
0.0142478850896
0.0135371071975
2.70755500105e-05
2.06510379945e-05
0.0134086441153
0.00745673919063
0.011350274669
0.00814611696567
0.00991028552193
0.0055700693319
0.0142415627931
0.00302731537015
0.0174445239129
0.00542261382782
0.00305780552405
0.00944505903713
2.22088402641e-07
4.39424358832e-06
5.51364038316e-13
1.57980686952e-11
1.00283561576e-07
1.71753424846e-12
1.00355585004e-06
0.00565246647379
0.00267864096607
0.0119943293503
0.0057552610503
0.00289989937109
0.00540915561161
0.0108727959121
0.012908236812
0.00972773016689
0.0126671070708
4.57943652604e-08
0.00486716974725
1.53140158038e-08
0.00114663023323
2.80991387812e-08
6.79770554373e-08
0.00147881893104
0.00741695822827
0.00290842601961
0.00639646755792
0.00367471366573
1.83201270563e-07
5.89287225813e-12
4.88383481808e-07
5.80715302067e-11
0.00880147586523
0.0102224998125
0.00901146426118
0.0100962951719
0.00478156785969
0.00761167338062
0.00285729721875
0.00427494141868
2.18694591033e-06
1.03994453479e-07
1.57533768345e-11
1.15218305624e-08
2.40076069008e-07
3.43472282138e-09
2.23820998646e-07
0.00636959845828
0.00725610541196
8.32238827218e-08
1.68007399662e-09
1.88660652022e-06
4.68690578062e-12
1.04973536266e-06
4.28996762474e-10
5.7424895422e-06
2.52554955791e-08
3.83477663197e-07
5.10014334722e-09
7.19260053318e-07
2.04972630196e-05
1.22863606416e-10
4.77988200714e-06
1.16745178459e-08
0.00827780171076
0.0100007300329
0.00880235649315
0.00942804510083
0.00668216264838
0.0062640687777
0.0071240952561
0.0074807918786
0.000242238529395
8.46771272076e-08
8.73135011473e-05
1.26325593498e-06
0.0127630159091
0.0115583042066
0.0113503112434
0.0128937050385
0.0135783124087
0.0136354394446
0.0121078057673
0.0143793990982
0.0140778847303
0.00884525372146
0.0130511788698
0.0129695380143
1.40663278461e-05
0.00641872069027
5.8159464325e-06
0.00543388852336
4.2587005151e-06
9.70433360773e-06
0.0065509560745
2.20340171439e-05
0.00907198510072
3.34205830839e-06
0.0082298632883
3.84710734507e-06
1.91153274364e-06
0.00786313124419
1.86400382369e-05
4.49391369263e-05
0.00494262904205
0.00643501679327
2.90282570579e-05
5.30832896241e-06
0.00653253042181
0.00965965547025
0.0111994177773
0.0104169675371
0.011836092076
5.05730988293e-06
0.00249263541929
1.68344317523e-06
0.00367157833411
5.77890762804e-07
1.65524381065e-06
0.00113303506762
7.11393263667e-05
0.000332490330201
0.00227769986147
0.0078496872499
7.90744426492e-06
0.000538554681914
3.03584258289e-08
0.0138975852556
0.00976209941065
0.00925544300618
0.00131412232762
1.22798325769e-07
0.00939346655708
2.48869955006e-07
0.00805000785003
2.56582069732e-07
2.21116130676e-07
0.00732697905723
4.90709615562e-08
4.16814932956e-06
0.000723359453285
0.00544944022327
8.77622081402e-07
7.95938861068e-08
0.00332306204306
1.35272493529e-07
6.89519814619e-10
9.25675688856e-05
8.40915991082e-05
8.96290678952e-05
0.00219894446284
6.39238824737e-06
0.00165423902601
1.0936737509e-12
5.38443112967e-08
1.23931577484e-06
7.37445074382e-10
2.95268282337e-14
7.16205910896e-14
9.29709340034e-09
6.68975682548e-08
6.0151399986e-13
6.0808419139e-11
1.09870269385e-06
2.13776127803e-13
8.22144343631e-08
3.02772815727e-07
3.57491062125e-05
0.00088313410913
4.46307824442e-05
0.000562302855221
9.12678462544e-05
0.00125147765036
0.000256571697915
0.000927934221736
0.000221909330276
0.000112692919144
0.00104234910229
7.32494815341e-05
1.97590963127e-06
0.000510613518288
0.00216923093701
8.49366464097e-06
0.00170945206721
1.88161370646e-08
5.43041736842e-13
3.62865384255e-07
1.53252447497e-07
4.65700454857e-11
2.47997521443e-07
1.23073215681e-11
0.000590217942909
0.00117404482277
0.000478258655746
0.000525560170061
0.000478352353617
0.000990191103474
0.000911383056334
2.74620780448e-07
1.26642161644e-08
4.87594552908e-11
2.291652967e-09
1.06655903541e-10
1.04956717531e-06
1.8289837527e-07
0.000752409227434
0.000115767631997
0.000917026035829
6.57834244534e-05
3.17769288951e-13
2.48091534149e-13
8.10069871284e-09
0.000544675851543
0.000599789798759
0.000243950217433
0.000608782133108
0.000318900829974
0.0007286761091
0.000150650983619
2.5707883906e-08
3.77518194589e-07
4.67865806471e-06
6.06943934078e-05
0.00123262829528
4.73760717241e-05
0.00108303041295
8.53508411026e-09
1.82271331785e-08
1.93072777411e-07
2.88447460145e-06
3.51834001277e-06
6.5495916459e-06
6.83260542686e-06
5.86392894089e-10
7.08706928367e-09
1.06223426697e-13
1.57721954734e-07
2.96267286886e-10
3.24962083254e-07
8.11515389138e-10
5.56015383528e-15
7.39832868627e-14
7.43918195212e-15
1.20616717037e-15
1e-15
1e-15
1e-15
7.70954711608e-15
1e-15
1e-15
0.0117953541444
6.79708005805e-05
0.00170424449117
1.12976489835e-06
1.71416733794e-07
1.75850613807e-08
5.09864403943e-06
0.00447392800355
0.00464110288472
0.0053388337915
7.40478308702e-06
1.14852206365e-05
1.24789142688e-05
8.6953892764e-06
1e-15
2.1050205521e-15
1e-15
1.47898115755e-13
6.52751398858e-12
1e-15
1.58012498487e-14
4.28061128994e-09
7.08636931309e-14
3.79210086596e-10
5.54666020916e-14
3.46813697069e-10
7.18917119357e-10
8.53303435919e-10
1.34664408248e-09
0.000197498359756
0.000218941050533
4.9323197647e-09
1.04067648721e-09
2.5853643497e-10
0.000193677626753
2.09683871759e-08
1.6048099134e-08
1.48518509336e-12
5.26382286519e-12
1.53337321847e-09
5.07987648433e-08
2.17178634857e-07
4.29398843534e-09
0.000306635785292
0.000319380906456
0.000368714462557
2.17334575934e-09
2.82688267324e-09
0.000291753111634
3.25513854907e-06
1.20554849811e-10
1.11769077468e-09
2.63882559394e-12
7.64638409985e-09
1.50126162732e-07
1.01704777438e-07
0.00491284383007
0.006090759186
0.00361964892576
0.00753146142998
2.53968033995e-07
1.28152013308e-08
7.12808442158e-09
3.83914243217e-06
2.63442229085e-09
1e-15
5.07918223074e-15
5.78120887445e-14
5.8647582527e-13
4.83841384157e-13
1.81963563186e-15
0.00252364033924
0.00218928411876
0.00156772605072
0.00308341687729
2.59463147567e-09
1.18844269989e-11
1.09649467005e-09
1.71565718884e-11
0.00698200892965
0.00756397435051
0.0104304791301
0.0122846116594
0.0137919604424
0.0114738443533
0.0121637772521
0.0137095076868
0.0103730032654
1.3772778916e-06
3.24626003421e-06
6.12116191734e-06
5.21727608599e-06
0.00404749169098
0.00257749947308
0.0029596540667
0.00357225958449
0.00356484439404
0.00174664714951
0.00246330381957
2.57095923045e-06
7.61047220732e-06
8.74950628641e-06
1.1701492389e-05
0.00352321756347
0.0013157320827
6.53157657732e-06
0.000113895054379
0.0104302572115
3.5548901999e-07
0.0153571268955
2.75094572015e-05
0.000480761517294
2.70466211696e-07
1.9206521047e-07
6.28268244745e-09
2.08378822567e-06
1.71241339733e-15
1.90685611529e-05
6.22364018567e-12
0.000783568218512
1.53910256825e-13
1.9933289124e-12
9.79465034246e-11
0.00746553937859
0.00954329217326
0.0115844238005
1.14359971493e-06
2.19535112724e-06
6.5014285993e-06
3.22465081544e-07
5.5874628366e-06
2.01305201655e-10
2.23791912343e-05
3.73478155189e-11
1.71333610276e-15
1.6133385591e-11
1.03565663175e-11
3.99076627132e-05
0.000412433774841
0.000305332427581
2.31355024337e-09
2.12060697466e-12
1.0489965892e-09
6.12394644343e-05
0.000152149766559
0.000230395503956
0.00506330273852
2.56130120896e-08
5.19167144548e-07
0.00351307230315
5.43757696862e-06
7.0761360129e-06
0.0156598566705
2.75123460584e-07
1.13747589997e-06
0.0199829155857
0.0126607330743
2.64446355023e-09
2.45108827276e-08
2.62883835508e-09
6.65089097299e-07
2.34987044645e-06
2.54677650361e-12
8.01136107618e-13
1.14723726577e-10
1.86945545565e-11
2.48643275791e-14
5.73800773459e-13
1.7473918522e-09
7.27231948929e-12
5.04055455428e-10
1e-15
1e-15
2.32040994284e-14
1e-15
1.36676533716e-11
3.73206234793e-11
1.9073550301e-11
5.21209101624e-15
1e-15
1e-15
5.43630897337e-12
1.59905228416e-12
6.35445582003e-15
2.86894112594e-15
1e-15
1e-15
1e-15
1e-15
1e-15
1.9734037768e-14
1e-15
1.15413732819e-13
2.98242807543e-15
1.18496803092e-13
3.25432390058e-11
4.49060245402e-08
5.54502861443e-10
1.20703809924e-10
1.79324143528e-14
3.96820910461e-15
1e-15
2.15177502247e-13
6.17334049326e-11
1.25779692451e-10
3.59621283499e-09
0.0106269069951
0.00881489358527
0.0101217802079
1.04297427332e-06
9.05055624086e-07
2.41506277678e-06
2.44157163905e-06
8.45318179752e-06
0.000103678334342
1.14556744949e-07
1.02199371326e-08
0.0010768053773
0.000534798812137
7.74480399309e-08
3.30418535869e-07
0.00542333633246
0.00775187480582
0.00648576218057
6.10754567775e-06
1.97224447206e-07
9.148811389e-07
4.34843709259e-06
0.00536102255295
0.00624369583301
4.39889071663e-06
7.70455002409e-06
0.00768544905721
0.0076175980905
3.99717308339e-06
2.05079217673e-06
0.00350681474414
5.24430289515e-05
0.00289044024443
7.400839164e-07
0.0004030803869
0.00615302649439
0.00602791625303
0.0047370464867
0.00367859921059
0.000745442324501
0.00537683089981
0.00157571342511
0.0023716443191
0.00368656607952
0.00121725516567
2.08121851567e-05
4.85070773465e-08
2.22604077951e-07
2.89951615951e-05
0.000920362811847
0.00126943567057
0.0038421903382
0.0014659663587
0.00120612186347
0.0035125820277
0.00104716094549
0.000816736734192
0.000482193072036
0.0010008943263
3.15367669671e-07
1.16968737588e-12
1.66984883229e-09
1.01768300356e-06
1.13137493927e-11
2.23604104015e-06
8.83227153962e-08
0.000287366299305
0.000331514999229
0.00041394001036
0.000509266783183
0.000294744279984
0.000642820384489
0.000192229387703
2.42795946651e-07
2.62712632807e-10
3.43331486105e-08
1.37127137573e-07
1.39833897123e-06
5.76681233842e-09
2.88805837725e-08
8.47153887869e-06
0.000654078015452
0.000416081684975
0.000664588382504
0.000590003751022
0.00157105050482
0.00130137940291
0.000833605086278
0.00041737555833
0.000527141082305
0.000438630354182
0.000138891240561
0.000505701539319
0.000643379229153
0.000510173498352
0.000681024427743
6.93635986604e-05
5.60630918157e-05
9.05321796275e-05
0.000110984445714
0.000290333387136
0.000175021158632
0.00014275894987
2.06873980277e-11
1.36025429226e-09
5.37188214322e-09
1.30883166872e-09
2.10532800489e-12
5.28077670968e-10
6.78400818268e-12
1.28433125288e-09
1.22759912096e-09
9.31742135073e-14
4.23977246523e-09
2.48182563838e-11
2.64670593112e-10
0.000198732319985
0.000105515531259
0.000104887820388
0.000104841977083
0.000127014390531
4.77431138706e-10
4.9185893837e-09
1.17317219823e-13
1.52337118549e-12
1.5191509824e-10
5.45944757553e-14
6.5705791004e-10
9.36012511257e-05
0.000120465078411
0.00010490972172
7.20636365677e-05
0.000144893763428
0.000112821417
7.41893542682e-05
0.000113369036588
9.50891471634e-05
9.48672044375e-05
7.04043941924e-05
0.000173048353238
0.000179936372198
4.33336965991e-05
8.66807108914e-05
5.59661808628e-05
0.000389874659208
0.00039499140294
0.000538347029142
0.00025777070992
0.000148034666826
0.00014638323684
9.98207536612e-05
0.000406246227066
0.000322410291574
0.000566962820344
0.000301943913087
4.05183827293e-11
3.89715693513e-14
1.56145690912e-14
5.58035124749e-09
3.8878437902e-13
2.9367891228e-10
5.65442962946e-10
8.24791663735e-13
8.91117134175e-11
1.44315659494e-15
4.30988999775e-13
6.03302061124e-14
4.82248665961e-12
7.95892105965e-12
0.000106119510345
6.4025980443e-05
0.000591091960517
0.0007947040292
0.000727893658354
0.000761209503199
0.000104760673347
0.0001549305372
8.88326233166e-05
0.000196930731351
0.000108992871528
0.000160825476658
0.000143630431993
7.30695882786e-11
2.09692954139e-11
5.03271258732e-09
6.04470249771e-08
0.00289441547449
6.01985877846e-07
1.16655921879e-12
6.23424569191e-10
1.20106427029e-07
0.00248567207969
0.000866854517451
3.18702041948e-07
9.22642293116e-06
4.04978883224e-07
0.00146626137766
0.00406331119368
0.00156016225271
0.00378810897515
0.00125840648474
0.000239652048232
1.45520510519e-05
0.000154607192936
0.000673944347106
0.00139078217867
0.00180137095549
0.000215515216666
0.00168203466299
0.00204869280831
0.000140397821325
7.90446288932e-05
0.00123663286134
0.000584079973227
0.000915541431508
0.000845992764953
0.000207409234456
0.00146897748207
0.00180157657067
0.00111113997329
0.00166645082521
0.00150629892424
0.00100717016049
0.00108171592834
0.00160064914396
0.000120055646473
0.000105021252852
1.84517165222e-08
0.000190425120272
0.000271706256508
0.000333544654486
0.000253705575416
2.94359863648e-09
0.000400729530358
1.00367860877e-09
1.81884914542e-08
0.000287043768286
3.2770325754e-09
0.000245157081424
0.00040566860501
6.55275766856e-05
3.28360837116e-06
6.04429551793e-05
2.18987558507e-05
0.000431675663231
3.21125894382e-08
4.0005891624e-09
0.000506919550286
0.000119612953234
9.74873294583e-05
8.29731710605e-05
4.63348886759e-05
1.75419972696e-06
3.57629510227e-06
4.1964196101e-05
2.40735525799e-05
4.05023138031e-05
0.000148477333798
0.000202061430701
0.00028955318434
0.000218188397805
0.000283345040863
0.00026434086434
0.000202385467858
0.000141479603788
0.000293471131698
0.000516498108793
3.21674165979e-08
2.51713967275e-07
0.000652348118815
0.000391449421061
7.07464166743e-10
7.43900902766e-09
0.000437312689327
1.46393975029e-08
4.08720916484e-07
0.00041275405651
0.000408565592638
1.06807003718e-07
9.564198556e-08
0.000510010785919
0.000318061171839
0.000286605067014
0.000172252281336
0.000188084293075
0.000233167170027
0.000107492087536
0.000826569441918
8.39085726954e-05
5.32172052773e-07
0.000544178432144
2.37591086984e-05
0.00301990738198
0.000246474966691
0.000850607340297
2.44177638551e-07
0.000231889317045
1.007759155e-05
0.00807698390254
0.0073950623041
0.00124954051482
0.00129314483306
0.00177802954735
0.00580829891791
0.0103292354667
0.00912302106867
0.00730298576679
0.00362235636466
0.00026541543101
0.000122757198399
0.00892739884726
0.000280611963318
3.65458506054e-09
1.04465438455e-07
0.000143974675209
0.000193769348541
4.09168640443e-07
3.47188529082e-05
0.00487175220169
0.00286818303699
0.00287075605964
0.00289095026385
0.00108698295744
0.00506478163905
0.000122955012475
2.22636472713e-05
0.000225183086596
1.90566890649e-07
2.3506182297e-06
0.000673473692862
9.90204000461e-05
8.79039333727e-05
4.63655053054e-05
4.87853936065e-06
1.59605633858e-07
1.17529045415e-06
0.000212291232605
2.77850475218e-05
0.00101339839675
0.00225197882937
0.00051650803367
0.00152196253226
0.000530042932672
0.000528641777738
0.00349461170277
0.00534756774437
0.00462701842068
0.00412430671043
0.000421506613585
0.000133883441366
8.29945046886e-05
0.00554394313329
2.51325632714e-05
0.000985063563515
0.00268277683904
0.000984588488221
0.00263407006257
0.00266653387264
0.00131048970536
0.00382097695633
2.5283753959e-05
2.15973080865e-10
2.86318320324e-10
2.77020686604e-06
3.83913346784e-08
3.30689511071e-06
1.23143302409e-06
0.00685998691036
0.000216340946359
0.000123635871684
0.00103326849583
0.00756121517638
0.000274856139502
0.00277518594889
0.00815617159324
0.00806450519831
0.00572607954891
0.000419754464075
0.00502749867875
0.000329962253203
0.00611103259835
0.00489221121937
0.00653427202429
0.0067670110876
0.000413156064621
0.0082447737333
0.000346537445274
0.00615506242063
0.000273792745836
0.000413972792537
0.00590453016882
0.00544169503495
0.00029711854165
0.00597191416718
0.00615074223241
0.003980854162
0.00670464430295
0.00094544212152
0.000464141768425
0.000127195093545
1.08401946819e-08
0.000136504542133
1.97935269792e-09
0.000149465532687
2.00557543752e-10
7.26714771843e-05
0.00945578911558
0.0114745391038
0.0129389243966
0.00840382896352
0.00802285628653
0.0068869934031
0.00615314201853
0.00887130932696
0.0072031513945
0.00448069966588
0.00631390551141
0.00535691450536
0.00912020944599
0.00584352103224
0.00770921180573
6.05757859756e-07
6.64283434015e-07
2.61125682538e-06
5.65751873725e-07
0.0115731962007
0.00743354681219
0.00873041507282
1.08107884499e-06
4.74673395972e-06
8.06987414412e-07
2.13950711782e-06
0.0046738678151
0.00510878412536
0.00630957652239
1.64069171264e-06
3.18072148374e-06
1.82497000666e-06
1.12506777799e-06
0.00463735904642
0.00407575301744
0.00344035546899