/*--------------------------------*- C++ -*----------------------------------*\
| =========                 |                                                 |
| \\      /  F ield         | OpenFOAM: The Open Source CFD Toolbox           |
|  \\    /   O peration     | Version:  2406                                  |
|   \\  /    A nd           | Website:  www.openfoam.com                      |
|    \\/     M anipulation  |                                                 |
\*---------------------------------------------------------------------------*/
FoamFile
{
    version     2.0;
    format      ascii;
    arch        "LSB;label=32;scalar=64";
    class       surfaceScalarField;
    location    "0.01";
    object      meshPhi;
}
// * * * * * * * * * * * * * * * * * * * * * * * * * * * * * * * * * * * * * //

dimensions      [0 3 -1 0 0 0 0];

oriented        oriented;

internalField   nonuniform List<scalar> 
88697
(
-6.5285641952e-10
-3.31213103753e-09
1.32572243915e-10
6.17955811651e-10
-8.13341621716e-10
-1.40089092285e-11
3.16429313025e-10
-3.39632466989e-09
3.96839684643e-11
-6.73403419165e-10
-5.96424522035e-10
7.57784205422e-11
5.72116283373e-10
-3.31424722522e-09
-4.93539941978e-11
4.90739082203e-10
3.43460351196e-09
1.31769358851e-10
-3.17212392714e-09
3.20647544912e-09
-4.7190236512e-10
-1.76936423713e-10
5.25401318852e-10
-3.33093281262e-09
3.34695031621e-09
4.56530139701e-10
7.14811592346e-11
1.79647801148e-11
-2.85017859803e-10
-1.00748685921e-09
-3.0342479563e-11
-5.99776985677e-10
-3.37310511455e-09
1.04753878656e-11
1.75550106702e-10
-7.5027931825e-10
3.06260360851e-11
7.16084672114e-10
-1.8191960753e-10
9.93811087956e-12
9.28720181007e-11
2.44496828364e-09
-4.87004258513e-10
4.90156006061e-23
0
-4.90156006061e-23
0
1.03049423284e-10
1.03508988661e-10
1.16461823102e-10
-5.90422351823e-10
-6.3464201422e-10
-6.57461134443e-10
-6.41963184303e-10
1.50632406512e-10
-7.39080657629e-10
1.75459952717e-10
7.34621000251e-11
6.61947726952e-10
3.7609846373e-12
6.25658598978e-10
-6.32617904785e-10
-5.03472209205e-11
9.35651579145e-11
5.66133869126e-11
1.33606381729e-08
1.33641707557e-08
-5.50651018776e-08
6.58626113714e-12
-2.64186472741e-08
-7.32947236867e-10
7.04801109676e-10
-3.10133730168e-09
7.22370180324e-10
7.49556463403e-10
7.60302604641e-10
3.2904030538e-11
3.65201653212e-11
7.18572476965e-12
1.08508840324e-11
7.07127182094e-11
-1.1333523322e-09
-3.23983095811e-09
3.22766297926e-09
1.13850467786e-09
-2.50626695373e-12
9.52190014909e-12
1.98097540752e-10
-2.02064274662e-10
2.63267789487e-09
4.90156006061e-23
4.90156006061e-23
-2.66339499199e-10
-3.01596949118e-10
3.84193570992e-10
3.98031260843e-10
3.1576823703e-09
-3.25095621824e-09
-3.75498079107e-10
1.73666505943e-11
1.60516091081e-11
1.94932234867e-11
-4.49872041088e-12
2.23279034288e-11
-3.44832839866e-09
-3.3063086127e-10
3.37620265911e-10
3.31821176827e-09
4.78342547721e-11
4.1446860134e-11
3.92029226789e-11
3.86194558155e-11
-4.39762676502e-11
-2.89581360173e-11
-3.15299755952e-09
6.97137966481e-11
6.26463172797e-12
3.15184493559e-09
-4.58676684317e-11
2.56479126381e-09
-4.90156006061e-23
4.90344238014e-23
-2.38479939684e-10
-2.92900558956e-10
9.00911317816e-11
1.0742421218e-10
4.78513415287e-11
5.21861784322e-11
-6.044085949e-10
-6.26588006822e-10
-6.63228275969e-10
3.87017388326e-10
-3.28408749611e-09
1.93051764351e-10
-3.2607021372e-11
1.05059786744e-11
1.03833038462e-11
-3.53336075762e-11
8.77899403703e-11
-2.38325489538e-10
3.03655890191e-09
-3.80609792258e-11
2.93365495834e-11
2.07399488172e-11
1.0301745416e-11
6.50083206724e-12
-3.1092061078e-09
2.39011740517e-12
3.15656339546e-09
-5.81596844777e-11
-2.05458566009e-11
1.20276496719e-10
-5.75580318449e-10
5.58529039635e-10
2.94521517394e-11
-1.35678020755e-10
3.00065111102e-12
3.80678628823e-11
2.08871165444e-10
-3.75547988439e-38
-3.88351446866e-11
-2.05534365713e-10
-2.58068476332e-09
2.43165108908e-09
-4.90156006061e-23
4.90156006061e-23
0
-3.28800671669e-37
1.26100086179e-10
-4.64070670447e-10
4.3279895588e-11
-1.92264128887e-10
-4.47672008346e-11
-6.12742061951e-24
1.98892946529e-10
-2.64990494502e-09
-4.90156006061e-23
4.90156006061e-23
1.19938970367e-10
1.38862561208e-10
1.29711495795e-10
1.27751450524e-10
-3.28912775546e-37
-4.90156006061e-23
1.00684471835e-10
-5.47728768036e-10
4.37441356186e-11
1.89381037984e-12
-1.97123635151e-10
1.47187676498e-10
-7.50816789997e-10
-1.57786790868e-10
4.4437691499e-11
7.18443198362e-10
-1.46498549412e-12
-2.21978417165e-10
0
-8.35894579587e-10
-4.90156006061e-23
2.09554176103e-10
2.08393058742e-10
2.0837366071e-10
2.09573684032e-10
5.49059347112e-11
5.60833284314e-11
5.60781079782e-11
5.49110460437e-11
5.85615484439e-10
-1.27197468136e-10
-6.04670819353e-10
0
1.32350108922e-10
1.39026941285e-11
1.93359583872e-10
-4.43687875124e-11
4.43687875123e-11
-1.93359583872e-10
-6.12647953202e-24
2.21978417164e-10
2.45078003031e-23
-8.64235521691e-10
0
-2.21978417164e-10
2.1545856646e-10
2.16659249334e-10
2.16639081853e-10
2.15478624044e-10
6.63507526052e-10
1.32712738898e-10
0
-6.84239657502e-10
-1.34650586369e-10
2.26699789216e-11
-1.98200489227e-10
1.92406260779e-12
4.25174676943e-11
-9.3543975301e-11
5.80988048015e-10
0
-6.30832264958e-10
4.25339655236e-11
-1.30812373872e-10
-6.77948092884e-10
-3.212897119e-37
6.71744446057e-10
7.24674176365e-12
5.7652892073e-10
4.14448033809e-37
1.25163326874e-10
4.19973355308e-12
2.0670542995e-10
6.12742061951e-24
3.80678628821e-11
-2.0670542995e-10
5.63839397061e-10
-9.45634951555e-11
-4.90156006061e-23
-6.08171473574e-10
4.5351596367e-11
4.32798955877e-11
0
1.93359583872e-10
4.90156006061e-23
-1.28139967683e-10
6.53877062496e-10
6.95805736623e-12
-7.65616779751e-10
-3.10417127954e-09
7.47994906866e-10
7.79676045611e-10
7.5523145598e-10
8.92434475244e-12
-1.42057372021e-11
3.90868559481e-12
-7.04791219814e-12
1.12079714767e-10
1.15471327631e-09
2.85801417891e-11
-3.18706035061e-09
3.17188434598e-09
-1.14853995776e-09
-1.95774557064e-11
-3.19536499114e-09
3.17644894766e-09
-9.51718231832e-12
-1.12390328141e-09
1.89841750082e-11
2.97687594163e-09
8.13132208116e-10
1.641726993e-10
-8.64432207555e-10
-3.07438477666e-09
2.01541391578e-12
-2.91768667013e-12
-1.03431289383e-11
-4.11846314371e-12
-7.35234009092e-23
-8.10495242958e-10
-2.77584478881e-11
8.26450016848e-10
-2.10174743167e-10
2.87727757473e-09
-3.06934749237e-09
4.46087366422e-11
-3.95202637361e-12
1.78724507599e-10
1.82554287736e-10
1.82480104528e-10
1.72825024919e-10
8.89229233786e-12
4.36401497947e-11
1.06663280516e-10
-7.24366440059e-10
-5.9919930198e-10
3.30029043936e-11
-1.45338230609e-10
8.75684161011e-12
-4.43687875124e-11
-1.92264128887e-10
-6.12647953202e-24
-4.90118362562e-23
9.97965062164e-11
1.5082231367e-10
1.36509055308e-10
1.74807431138e-10
1.64282108726e-10
0
8.49602435817e-11
7.28509025344e-11
-6.56655931458e-10
3.03071938707e-12
4.43687875125e-11
-2.02124906475e-10
-7.80846427922e-10
3.15347255555e-11
7.55442213062e-10
2.36684212478e-12
2.45078003031e-23
-8.73680084429e-10
0
2.17839874625e-10
2.17819597247e-10
2.19000112641e-10
2.19020499916e-10
-9.80236725123e-23
-7.07070638851e-10
3.09749225732e-11
3.7642872863e-11
1.2252959064e-23
-3.36743155989e-11
2.08613716985e-10
2.59156244662e-09
0
-2.3150783896e-10
-3.94678191443e-11
-1.73573505637e-10
3.25942562913e-10
-2.43369031378e-10
-2.51164871521e-10
3.18367308299e-09
2.46668229379e-10
-3.01771783411e-10
-1.15014961305e-10
-1.46189712384e-10
-2.95955026225e-10
3.12432937355e-10
4.30113727951e-10
3.67043473632e-11
-4.44199053036e-10
1.4076160261e-11
9.53039529961e-11
3.09898273644e-09
-2.45765327551e-10
-1.48053581684e-10
2.82883959576e-10
-1.25337485066e-10
-1.92104342866e-10
-3.30208383753e-10
-4.98689848306e-10
4.12274103561e-10
-8.26242643714e-13
-6.0572352745e-11
-4.3950286358e-11
1.00345311724e-11
1.14446960063e-10
6.0954206378e-11
6.24756899001e-10
-1.40324303455e-11
4.38241826024e-12
-6.07431400341e-10
-6.86296929538e-11
-3.01985032204e-09
-1.19746379675e-10
3.00371949343e-09
7.06597252514e-11
-3.1028059607e-10
-1.37427162412e-11
8.69554293281e-11
-1.56685990439e-10
6.23676447139e-11
4.51219360589e-10
-1.45621241602e-11
-4.48801248939e-11
-3.34771746127e-11
-3.83187837989e-11
1.14065958564e-10
-4.02385184999e-10
2.65061827475e-09
-7.09459197466e-10
-6.7434607616e-10
9.83638695785e-11
6.83234961119e-11
7.28313662175e-11
7.96676240491e-11
-2.41860121623e-11
-2.67623391828e-11
-2.87443856336e-11
-6.98728606288e-10
-6.7081156628e-10
-2.34154614923e-11
-2.3309736572e-10
6.81801175689e-11
3.02512747196e-10
-1.08242121907e-11
-6.7650814138e-11
-2.94877037828e-10
2.6591993919e-12
3.45118794649e-09
-3.28693191673e-09
3.54450441999e-11
-2.93491124477e-11
-2.2012500853e-11
1.02457602762e-11
3.72891044503e-11
-3.90883574766e-10
-6.72647045533e-11
-9.75010665725e-11
-2.9048301148e-11
6.62826760095e-12
5.7806937944e-10
2.68753947429e-10
3.19915322911e-09
-2.01084287997e-10
4.02503730025e-11
3.29453430035e-12
4.4584903111e-11
3.29080074182e-11
-6.9648938105e-11
3.51191953264e-09
2.18287858761e-11
6.7518789696e-11
-5.22896876203e-11
6.63648554555e-11
-4.21393549238e-11
2.39717716305e-11
-3.19772587249e-10
3.24597157924e-10
4.67704457932e-12
9.87197827341e-12
7.05128754545e-10
-3.65391228699e-11
-1.63659625418e-11
4.29267164063e-11
-6.81547518501e-10
-1.36028670396e-11
-2.35814911026e-10
4.39521818021e-11
-2.4720327418e-10
-6.29058186452e-12
4.53013081424e-10
-1.56817574979e-11
-2.36361588787e-11
-6.12967805614e-10
-3.94039213641e-11
6.75573730166e-10
4.90785736157e-11
-5.03727097381e-11
-1.51931655388e-10
-4.74939801326e-10
4.81357306458e-10
4.0409129833e-11
-1.70084377057e-10
-1.93265277758e-11
-3.93020652844e-11
5.75177899115e-10
1.82202228455e-10
2.98853155743e-11
-1.13462100393e-10
-5.24697740404e-11
-3.31138964338e-09
5.52092676958e-11
3.32011472738e-11
6.70683008643e-11
5.3126124624e-12
3.20013749528e-09
-9.38049378772e-11
-2.84469202667e-09
1.64160987024e-11
-8.10693792962e-12
2.79671482639e-11
7.99098589479e-13
1.67471831841e-12
1.32899873715e-11
2.88590106041e-09
-5.30638911742e-11
-5.80515666372e-12
-2.81154674902e-11
5.43450080828e-11
7.28859459212e-11
6.92761948495e-11
8.44036147019e-11
-1.02484661645e-10
-5.73685881503e-11
-1.6413802064e-11
-6.68699855209e-10
-6.99894828595e-10
-7.33030958913e-10
3.72070880491e-11
3.8435698239e-11
5.32104713204e-11
2.5782303992e-11
-1.25599045891e-11
-4.85989756804e-11
-2.77466049572e-11
-1.44367222287e-11
-6.96974590696e-10
-2.62333476522e-11
-6.45450082477e-12
7.28417403904e-10
-8.22884983423e-11
0
5.34742384627e-10
-3.01494850189e-11
4.86869250835e-10
-6.6731744519e-10
3.2659532826e-10
1.20035226454e-37
3.68908620017e-11
2.100629862e-10
-8.09998038911e-11
-4.90156006061e-23
5.17458957962e-10
4.50917446478e-11
4.89769360162e-10
-6.61628975931e-10
-1.74577528873e-11
4.00359226256e-10
2.2459564108e-10
3.10134534693e-09
-2.83662246004e-10
-1.31498798306e-10
-2.84213383199e-10
-1.52635171648e-10
3.37528104335e-10
5.11687479607e-10
-5.77331677942e-10
5.07954358669e-11
1.2827851774e-10
3.08721555869e-09
-2.79560672584e-10
-2.38713565263e-10
-2.97740062935e-10
-1.88918120856e-10
-6.22455239539e-10
-6.20028201843e-10
-5.96727456261e-10
-6.48666267426e-10
4.93898334079e-10
4.99958456844e-11
-5.66528328095e-11
7.89341478144e-11
4.72690586814e-10
3.12984097661e-10
-3.58097856351e-11
-9.62003119624e-11
-6.78051352617e-12
-9.25167917099e-11
1.47855259557e-10
-3.09945486183e-09
2.31497833402e-10
-8.3303514915e-11
-1.24244812316e-10
-1.132447434e-10
-7.2978817066e-11
1.67848763751e-10
1.0388800853e-10
4.51610720733e-12
-5.25251493879e-10
8.69180097545e-11
4.48743574482e-11
1.14583693917e-10
2.66182655306e-10
-5.20342728094e-11
-6.10883693154e-11
-6.95920262603e-11
-5.04306574466e-11
1.66760091148e-10
2.96130367991e-11
-4.94735776792e-10
1.27869399324e-10
-2.98151381171e-11
9.00256662654e-11
4.5343345114e-10
-7.90161039658e-11
-4.16844437631e-11
-4.87405464028e-10
6.52590060092e-11
-2.51230473168e-09
1.0650865127e-10
-4.94138301914e-11
2.64006602456e-09
-2.59080509763e-11
-2.06797755959e-11
3.00256696938e-11
2.99233950363e-12
-1.71286296589e-10
-1.87888606563e-11
-2.15314476405e-11
-6.41905800628e-11
6.62003082808e-10
-2.33999225737e-10
3.0784514659e-09
9.27743962828e-11
-1.71832632557e-10
-7.86372062265e-11
-1.686550403e-10
3.08472361274e-09
-1.95675230576e-12
3.48894829068e-11
5.7273288898e-11
6.93259400973e-11
4.67127621158e-11
-3.7673235903e-11
-5.62772125673e-11
-5.94801989827e-11
-1.19016631226e-10
-3.14398779992e-11
2.69763000625e-09
-2.04354781562e-11
5.00215509292e-11
3.50385172461e-11
5.93061924001e-11
-6.68977917157e-10
-6.87173077322e-10
-7.28325066247e-10
-7.03468126722e-10
-2.81529099079e-11
-7.61469327078e-12
-6.51667586826e-12
3.06805050456e-09
-3.98594250688e-12
-2.03681966647e-10
-5.39326338858e-11
4.85108566555e-11
2.8498979643e-09
-7.89228039962e-12
-7.00158372194e-11
6.19693373749e-11
-3.39862110791e-11
-1.54485171186e-10
-1.3120449148e-10
-4.2831354445e-11
3.60912504767e-11
-2.74494711893e-09
-5.31547996982e-11
8.28281071885e-12
2.95112655084e-09
-1.17177479152e-10
4.90348319027e-11
-7.43585795744e-11
-3.626732215e-11
-4.36515563523e-11
-9.22980283909e-11
-1.17605919298e-10
3.1948312005e-09
3.13755998627e-11
-1.52476793585e-10
7.0152324986e-12
2.86150809761e-09
3.82292586596e-11
2.26755991106e-11
-6.04276598836e-11
3.70226457242e-11
-1.09280009117e-10
-8.07523304176e-10
8.07523304176e-10
1.7474094121e-10
-1.2254841239e-23
0
0
-1.2254841239e-23
-1.7474094121e-10
4.62671114953e-11
-2.01725170355e-10
-4.79474204432e-11
1.83822618585e-23
2.01725170355e-10
1.84186515126e-10
-8.07523304176e-10
-8.50728297692e-38
0
0
0
-1.84186515126e-10
2.08127825007e-10
4.11128443708e-11
2.68209766988e-12
1.83794385961e-23
-4.82109932669e-11
-2.03711773781e-10
8.16967427326e-10
1.65295367294e-10
-1.65295367294e-10
-8.16967427326e-10
0
-2.45059181281e-23
0
0
-1.55849793378e-10
-8.26411550476e-10
1.55849793379e-10
1.2252959064e-23
0
1.2254841239e-23
0
8.26411550475e-10
-3.83786646907e-11
-1.2254841239e-23
2.03670557578e-10
3.83786646909e-11
-6.12742061951e-24
-2.03670557578e-10
-2.05534365713e-10
4.15754787244e-11
2.05534365713e-10
-4.15754787243e-11
-1.2252959064e-23
-1.55849793378e-10
8.16967427325e-10
0
0
0
0
-4.17104380103e-11
-2.02901309866e-10
6.12647953202e-24
2.04949169083e-10
4.24006273672e-11
-8.26411550476e-10
1.65295367294e-10
0
0
-1.2252959064e-23
0
8.07523304176e-10
1.2254841239e-23
0
-1.2252959064e-23
-1.2254841239e-23
-1.65295367294e-10
1.2254841239e-23
2.02489932287e-10
-3.83786646908e-11
-5.49869517401e-38
-2.02489932287e-10
8.07523304176e-10
0
0
0
0
-1.55849793379e-10
-2.08255594934e-12
-6.12647953202e-24
-4.1914918162e-11
2.10414861108e-10
-8.16967427326e-10
1.74740941211e-10
0
1.2252959064e-23
-1.2254841239e-23
0
4.90156006061e-23
-2.02021173001e-10
4.62671114953e-11
6.12742061951e-24
2.02021173001e-10
-1.84186515127e-10
8.26411550475e-10
4.66405134834e-11
0
0
-2.53466866227e-37
0
-8.26411550476e-10
4.66405134838e-11
4.54527440796e-11
4.54527440796e-11
0
4.27465429614e-11
-2.05534365713e-10
-4.27465429613e-11
0
-8.16967427326e-10
0
-1.2254841239e-23
0
0
-4.90156006061e-23
-6.12647953202e-24
-2.05305867317e-10
4.27465429616e-11
1.7474094121e-10
-1.2254841239e-23
0
1.2252959064e-23
0
0
-5.13556837257e-11
-2.13260751243e-10
1.22623699389e-23
5.13556837256e-11
-1.22623699389e-23
2.13260751243e-10
0
-2.11806036619e-10
4.78574096484e-11
2.06173664851e-10
-4.80894302895e-11
2.16639081853e-10
0
4.78139562055e-11
1.2252959064e-23
-2.16639081853e-10
-4.78139562058e-11
-2.16639081853e-10
-1.2252959064e-23
5.13556837255e-11
-5.13556837257e-11
0
2.16639081853e-10
1.81426283128e-12
-2.11214862078e-10
4.70554295151e-11
-4.78139562058e-11
2.13097535672e-10
1.2252959064e-23
-2.13097535672e-10
1.2252959064e-23
4.78139562054e-11
-2.12078421997e-10
0
-5.13556837255e-11
0
2.12078421997e-10
-2.08393058742e-10
-4.80894302892e-11
1.93359583872e-10
-1.2252959064e-23
4.80894302891e-11
2.08373660709e-10
-4.78139562058e-11
-1.2252959064e-23
0
-2.08373660709e-10
4.78139562056e-11
-2.0837366071e-10
-5.13556837256e-11
-1.2252959064e-23
5.13556837255e-11
0
2.08373660709e-10
2.12241637569e-10
3.53939966119e-37
-2.12241637569e-10
-1.22717808138e-23
-4.78139562055e-11
-4.66405134834e-11
-1.2254841239e-23
-2.17819597247e-10
-1.2254841239e-23
4.66405134838e-11
2.17819597247e-10
2.17819597247e-10
-4.30915319528e-11
0
4.30915319534e-11
4.19380604403e-37
-2.17819597247e-10
-3.83750922561e-11
1.2254841239e-23
2.17819597247e-10
0
3.83750922563e-11
-2.17819597247e-10
-4.19110165593e-11
0
4.19110165596e-11
1.2252959064e-23
2.17819597247e-10
2.13260751243e-10
-4.32547475243e-11
0
-2.13097535672e-10
0
4.3091531953e-11
0
1.2254841239e-23
-4.66405134836e-11
2.16639081853e-10
-4.68037290549e-11
0
2.13260751243e-10
1.22642535595e-23
4.66405134835e-11
2.16639081853e-10
0
-4.30915319532e-11
0
-2.16639081853e-10
8.45299796775e-10
-1.65295367294e-10
4.20742316662e-11
-2.12078421997e-10
0
0
0
2.45059181281e-23
4.07366670879e-11
4.22374472374e-11
4.07366670879e-11
-2.10734691497e-10
-2.12241637569e-10
-2.10734691497e-10
-4.90156006061e-23
1.55849793378e-10
-8.35855673625e-10
0
-1.2254841239e-23
0
0
8.35855673625e-10
0
3.66811873819e-11
2.10542439949e-10
-3.80678628822e-11
6.13212677974e-24
-2.03587874029e-10
-2.0670542995e-10
2.0670542995e-10
1.20707849717e-37
4.15754787242e-11
1.55523363166e-10
8.45626226989e-10
0
-2.45285071189e-23
-1.2254841239e-23
0
0
-8.35855673625e-10
1.2254841239e-23
1.2252959064e-23
0
1.2252959064e-23
-4.90156006061e-23
3.80663121736e-11
-1.92817903515e-10
-3.03653050694e-12
1.96948858991e-10
-3.8891176044e-11
0
2.1342396635e-10
0
4.19110165594e-11
2.04560985382e-10
3.56100278913e-11
1.22642535595e-23
-1.97894541835e-10
2.16639081853e-10
-2.4509682478e-23
1.2254841239e-23
-3.83750922562e-11
-2.16639081853e-10
8.55077604618e-10
1.2252959064e-23
0
0
-1.22717808138e-23
2.39790193215e-37
-2.14278051066e-10
-2.1342396635e-10
-2.1342396635e-10
-2.14278051066e-10
3.95498044331e-11
3.83750922562e-11
3.83750922562e-11
3.95498044331e-11
-1.92024094725e-12
1.93592022188e-10
-1.2252959064e-23
-4.19110165593e-11
1.2252959064e-23
2.16639081853e-10
0
-4.30915319532e-11
-2.12241637569e-10
1.22717808138e-23
1.2254841239e-23
-1.2254841239e-23
2.08373660709e-10
4.66405134833e-11
-2.0670542995e-10
-6.12647953202e-24
4.27465429613e-11
0
1.2252959064e-23
-1.2254841239e-23
0
-4.90156006061e-23
4.4278938652e-11
4.3091531953e-11
4.4278938652e-11
4.30915319532e-11
-2.09554176103e-10
-2.0837366071e-10
-2.0837366071e-10
-2.09554176103e-10
0
2.12078421997e-10
1.22642535595e-23
-4.66405134836e-11
2.16879305198e-12
-1.8892747882e-10
-3.99866310286e-11
3.27559266148e-11
-6.30107218758e-10
-5.12696673716e-11
6.88367028493e-11
6.78868428119e-10
-9.90841714537e-11
9.50268410919e-12
-1.86867293763e-11
1.02763629411e-10
3.13030701306e-09
-7.20416616127e-11
2.52162735666e-10
-3.20304335701e-09
-2.20126340772e-10
-1.31534511423e-10
3.25510565435e-09
4.74358191922e-11
1.60790694734e-10
-1.7489309799e-09
-1.75335183795e-10
1.68456340664e-09
-1.99059513568e-10
-6.77388754943e-10
-6.56322481716e-11
2.00632247432e-11
3.57683184096e-11
7.19945386577e-10
1.97447357754e-10
-5.71868696899e-11
3.11247734836e-09
-8.66717568649e-11
-3.15695881289e-09
-1.42710971509e-10
2.6313624957e-10
3.22772334991e-09
6.09729205772e-11
-1.68159871353e-09
1.59791500312e-10
-7.98018145661e-11
1.49757192313e-09
-1.24035774533e-10
-4.22793622454e-10
-3.30944365221e-09
3.34735121006e-09
4.46040212788e-10
6.28816263465e-11
3.34183339414e-09
4.0974577654e-10
-1.85867437293e-10
6.10244442729e-11
-3.2579363452e-09
1.41747078733e-09
-2.32244680594e-10
-1.60367561657e-09
-7.28885395767e-11
2.15008735273e-10
-3.81738552847e-10
-3.17831999161e-09
-1.2020131223e-10
4.35699660395e-10
4.10698480979e-10
-3.34156896532e-09
1.44148403076e-10
-6.98199904797e-10
3.41551290659e-09
-1.20527479307e-10
-3.44553221979e-09
1.1413680871e-10
5.17268884836e-10
-1.11535430718e-10
-5.74922802915e-10
2.45078003031e-23
5.50525400867e-11
6.4367760271e-10
1.0602417976e-10
-6.4379546789e-10
6.57450364367e-11
4.7427991953e-11
-7.35234009092e-23
2.71839238958e-11
6.60792394339e-10
6.96780308238e-10
7.03798858515e-10
6.69241113678e-10
5.25983450953e-10
1.11179928596e-10
-5.74255914425e-10
2.45078003031e-23
5.12293435863e-11
-2.96006021744e-09
1.40440619194e-10
6.42648139302e-10
8.18828698794e-11
0
8.52563782622e-11
-2.45078003031e-23
6.35409656108e-10
6.6649153786e-10
6.95505098235e-10
6.56103521307e-10
-3.42534686503e-09
-1.30937444452e-10
3.42522574058e-09
-2.05516835927e-11
2.72191012942e-11
-3.25093327323e-09
1.16766593877e-09
3.2354673147e-09
-2.47058052263e-11
1.63949962422e-10
7.92010853908e-10
-3.11257187981e-09
9.57845909955e-12
1.34026405818e-11
-5.46121767295e-12
-7.83682785281e-12
-4.28294261042e-11
-2.26544125999e-10
2.19154750863e-10
5.21428638482e-11
-6.12742061951e-24
-2.7339586329e-09
-1.36732206798e-10
2.61972429302e-09
2.45078003031e-23
-2.45078003031e-23
-1.163091059e-10
-1.36652087224e-10
-1.34117783717e-10
1.42984028449e-10
-1.28314578865e-10
-2.80107746136e-09
2.45078003031e-23
0
1.06712464153e-11
-1.26832662242e-10
-1.13858830252e-10
-1.21148726092e-10
-3.80678628822e-11
2.16075742717e-10
-2.16075742717e-10
3.80678628825e-11
-1.2254841239e-23
2.99939899169e-09
6.94266414324e-10
-9.06088023133e-11
-3.05080020654e-09
-6.92326645303e-10
8.28188101958e-10
-3.03441748688e-09
-8.30665785294e-10
1.50511418748e-10
2.99240793123e-09
3.29458245442e-09
-6.95056496304e-10
-1.07334942084e-10
-3.33882237426e-09
-3.07351572403e-09
8.24237609825e-10
1.43252563704e-10
3.07465427165e-09
9.7217989625e-11
8.17930813036e-11
-9.86638790442e-11
0
4.36921692951e-10
9.7986157833e-11
7.05338493228e-10
-7.19389646977e-10
-6.21167077332e-11
-1.01385805965e-10
7.95675096139e-11
3.44385663096e-11
-7.096304285e-11
1.21393627939e-10
-5.75239954086e-10
-1.39736416071e-10
-7.28133172162e-10
-9.48407347122e-11
-5.06426812115e-11
8.61793054912e-11
7.21845472589e-10
6.55918100043e-11
1.04105232855e-10
0
4.35849659352e-10
8.32465483703e-11
-7.31556887465e-10
-3.43891337815e-11
8.21466401232e-11
5.36523667945e-11
1.68815328675e-11
6.79552688453e-11
-6.39519524629e-10
-8.8267465717e-11
-1.14456184979e-11
-6.35100027934e-11
6.09012935344e-10
7.64404444639e-11
1.17750654611e-10
-5.67486947563e-10
-1.18565431693e-11
5.87596468363e-10
-1.26003632242e-10
0
-2.17769240071e-10
2.18409161817e-10
-4.71806025864e-11
-1.26705407144e-37
4.98411905944e-10
6.52847245482e-11
-1.10788276405e-10
-5.53468817907e-10
-3.61717429778e-11
-5.63484235545e-10
-1.83817677612e-11
5.83336481365e-10
1.16280176553e-10
0
-6.89351238714e-10
-1.41714040389e-11
3.36812267628e-11
6.53987240721e-10
-1.12460403596e-10
2.07973365756e-10
-2.07973365756e-10
-3.56100278912e-11
1.2254841239e-23
-1.89316385924e-10
4.23688284315e-11
1.81434794572e-12
5.35077655702e-11
-4.4041355319e-11
-2.25341839942e-10
6.12647953202e-24
-2.21968085379e-10
-8.35855673626e-10
2.45078003031e-23
2.21968085378e-10
2.09554176103e-10
2.0837366071e-10
2.09554176103e-10
2.0837366071e-10
-1.27412831649e-10
-1.29029132377e-11
-5.50512668776e-10
7.73981313384e-11
4.99460467789e-11
2.77663380579e-09
5.15969677127e-10
-2.9398771748e-09
-1.33908081251e-37
5.80732331929e-11
8.61840085696e-11
2.490420029e-11
1.2076038913e-10
6.4003411509e-10
4.90532469967e-23
-2.45059181281e-23
1.27237900561e-37
-2.45078003031e-23
3.11300766579e-11
6.44050281438e-10
6.51573795792e-10
6.74415272088e-10
-1.44215935286e-10
-1.25254615418e-10
-1.49663457868e-10
-1.34786965417e-10
-4.34420229764e-11
4.43687875121e-11
-1.93359583872e-10
2.86233537174e-12
1.50138420232e-10
-7.74397483551e-10
8.64195296626e-10
-2.21968085378e-10
-1.79681479284e-11
1.4974634388e-10
3.59300670929e-09
-3.51423490631e-09
-3.61407304031e-10
-2.67967267269e-10
5.62230143527e-11
2.08397076766e-10
-2.96616084752e-11
7.25550240348e-10
5.52010624868e-11
-3.04490727994e-11
-7.51316041671e-10
-7.46774719675e-10
-3.55119958301e-11
-1.74639653746e-11
2.1430730133e-11
7.57612918768e-10
2.90958243694e-12
3.47381146146e-10
-3.06467722939e-10
2.73483507244e-09
-1.45033886599e-10
-2.45078003031e-23
-1.82318471187e-10
-1.3593882707e-10
-2.15649993476e-10
-2.35670007006e-10
4.62674044214e-10
-3.57062415519e-11
3.68908620019e-11
6.12647953202e-24
2.09106625367e-10
-2.39672380363e-11
4.25013406196e-10
-4.90997084332e-10
4.24955670307e-12
-5.6280150272e-11
8.3483323791e-10
-6.31997685479e-11
-2.50418964074e-10
-1.99941290447e-10
-5.14160293424e-11
-2.42271583124e-10
6.86495098672e-10
8.20208409715e-10
3.01843754766e-10
-8.26411550476e-10
-2.05206147116e-37
-2.21968085379e-10
2.07193145316e-10
2.07193145316e-10
2.06012629922e-10
2.06012629922e-10
-8.77578266482e-13
-5.64325306335e-10
-1.29696894611e-10
2.45059181281e-23
-2.90789298583e-09
1.15466803934e-10
6.89085241514e-10
6.5300087253e-10
1.65458143803e-11
5.57276894329e-11
6.8775900372e-10
5.78684636421e-11
-6.68185096351e-10
6.51996130127e-10
4.83259501219e-12
-1.88241179377e-10
1.78786272789e-12
4.78139562059e-11
-2.17819597247e-10
6.12647953202e-24
2.74796914659e-09
-3.14468197694e-09
4.1563772221e-11
8.32558435411e-11
1.24719899975e-10
-2.45059181281e-23
-2.45078003031e-23
6.63064200517e-11
-8.04043129664e-10
8.73639419776e-10
-5.7794210575e-11
5.52935131434e-10
-3.11831250049e-09
-5.39210291642e-10
3.18920460059e-09
-2.46393580547e-10
-3.1468757961e-09
3.97987639485e-10
3.19777592643e-09
-1.75836760896e-10
-3.81181289406e-10
-1.82319365582e-10
-3.44629466792e-09
2.10706521668e-11
-3.42315414678e-09
-1.19113320812e-10
3.44398640096e-09
-5.82569483268e-11
-3.3841121389e-09
-2.0563861497e-10
-5.71519774774e-11
-3.18674525201e-09
5.79089748483e-10
3.26366550447e-09
-2.71271474167e-10
-3.36364321745e-10
3.50740708738e-09
-9.47780224548e-11
-3.54174196297e-09
-3.42401162357e-09
-3.1917404164e-10
3.36701066764e-09
-2.10046991292e-11
-3.06753479926e-09
5.00643769987e-11
3.08569368208e-09
1.0139281343e-10
-9.85196032225e-11
-3.11863639319e-09
1.06876211819e-10
1.54493385738e-10
-1.47254341583e-10
8.73639419776e-10
-1.84186515126e-10
0
6.12742061951e-24
6.12742061951e-24
0
-8.73639419776e-10
2.16075742717e-10
-4.27465429614e-11
-2.16075742717e-10
4.27465429616e-11
1.2252959064e-23
8.73639419776e-10
-1.74740941209e-10
6.12742061951e-24
-6.12647953202e-24
0
6.12742061951e-24
-4.15754787239e-11
2.16075742717e-10
4.15754787245e-11
6.12647953202e-24
-8.73639419776e-10
-1.55849793378e-10
0
1.2254841239e-23
0
0
8.73639419776e-10
-1.65295367293e-10
-6.12742061951e-24
-2.07041848104e-37
-1.20763901656e-37
1.2254841239e-23
6.99884673559e-10
7.96230625614e-11
-8.10126861255e-12
-6.95072043401e-10
-8.55137413909e-11
9.17931728481e-12
6.70663172794e-11
-1.72033232419e-11
7.12099289522e-10
-8.7770737519e-11
2.56931275179e-11
1.58253106404e-11
3.17374166122e-10
-2.71792582897e-10
-2.72342582016e-11
-8.20199176643e-11
3.11995919544e-10
-5.38936081231e-11
-2.83012805152e-11
-7.73101963864e-10
-5.72726863037e-11
7.59739017772e-12
7.37882715315e-10
1.1319582519e-10
-3.99564458758e-11
-2.00070144275e-11
3.71273712978e-11
-7.43137950024e-10
-2.94542975864e-10
-3.57092456005e-12
2.63320813768e-10
7.09553442111e-10
3.372977331e-11
-1.51426922758e-11
-4.15312654899e-11
-7.16270866131e-10
-6.16339448531e-10
1.9499085245e-13
3.27580857156e-11
5.72331907602e-10
6.58190626204e-11
-5.47645982587e-11
8.98054296514e-12
5.32484853234e-10
-4.87065508777e-10
-2.70185033184e-12
-7.40408886357e-10
2.22373544742e-11
-1.44370583092e-11
7.52340841085e-10
-5.52442467224e-11
-4.29436366443e-10
-1.46705002701e-11
1.36428141773e-11
4.72895374097e-10
4.15377741877e-10
-3.68247390774e-10
3.4560363566e-12
-3.21835775572e-10
2.14990784185e-11
-3.05606045763e-10
-2.06859242221e-11
-1.1907101328e-11
2.9591007246e-10
-7.35472289631e-10
-3.09468760414e-11
-4.89020965375e-11
7.33960387218e-10
5.30595944758e-11
-2.13254514952e-11
3.92238384877e-11
-6.78180978733e-10
4.05334982918e-11
3.40964491713e-12
2.18291309527e-11
-1.3238987999e-12
-7.45342476068e-10
-5.55280883178e-11
-1.86386407689e-11
1.50380334679e-11
-3.851355719e-10
8.51632200533e-11
-1.06527659551e-10
-6.30590627139e-11
4.37801521556e-10
-3.45090195602e-11
6.12647953202e-24
2.01029451491e-10
2.85935329216e-10
-4.78698704562e-10
6.9281600354e-11
7.02476819136e-10
-1.43212751917e-11
-6.82814907502e-10
6.49642634254e-11
9.31816269429e-12
8.22636477175e-10
1.2116106176e-11
-8.31527769776e-10
-1.98883325108e-11
-3.96166313347e-11
-9.10890033289e-11
3.61543203438e-10
7.9057474427e-11
-5.30929676424e-11
5.15380840242e-12
6.58709675372e-11
-7.80396276266e-10
-1.06374958963e-11
-4.46306047489e-11
2.26002395705e-11
-3.62368319568e-11
9.06540150115e-11
8.02446420034e-10
9.71222422623e-11
-4.41474852244e-11
7.16168573191e-10
4.6232652894e-11
5.12893955542e-11
-2.12662234465e-10
7.4665587058e-11
-7.21630080923e-12
-5.47969027972e-11
-7.3872756847e-10
1.21755148043e-11
-2.38785845456e-11
3.07918389256e-11
-2.87872639449e-12
7.73971344441e-10
-5.54946833129e-10
-3.70135171041e-11
5.6784890523e-10
7.0794421623e-12
1.72269936931e-11
3.43279855155e-10
-3.15670549928e-10
2.12885550843e-11
-4.93891608573e-10
-1.09124943015e-11
5.13022282386e-10
5.98269406341e-10
-1.12548161907e-10
-2.36128472336e-11
-4.3691871909e-10
-1.81744456111e-11
-2.75880601907e-11
3.56787406879e-10
-3.34750071375e-11
-5.674821025e-10
1.77054667573e-11
6.97935825575e-12
-2.22697239102e-11
-4.53092923456e-10
2.02471083741e-10
4.30915319531e-11
0
-4.30915319532e-11
-2.02471083741e-10
4.64110051384e-38
4.66405134837e-11
-6.12742061951e-24
-2.02471083741e-10
2.02471083741e-10
-4.66405134836e-11
1.83822618585e-23
1.80344685719e-10
-3.92794139734e-11
-4.19110165593e-11
-2.03651599134e-10
0
2.03651599135e-10
6.12647953202e-24
4.19110165594e-11
3.83750922562e-11
3.75267728746e-38
2.07193145316e-10
-6.12742061951e-24
-3.8375092256e-11
-2.07193145316e-10
-3.68308473017e-11
1.95483679316e-10
3.5606455457e-11
-1.8895880549e-10
-3.83750922562e-11
-6.12742061951e-24
2.03651599134e-10
-2.03651599135e-10
3.83750922562e-11
-1.2254841239e-23
-2.07193145316e-10
4.19110165595e-11
1.2252959064e-23
-4.19110165594e-11
2.07193145316e-10
-1.83794385961e-23
-6.12647953202e-24
-4.19110165593e-11
2.02471083741e-10
6.12647953202e-24
2.00850108764e-10