/*--------------------------------*- C++ -*----------------------------------*\
| =========                 |                                                 |
| \\      /  F ield         | OpenFOAM: The Open Source CFD Toolbox           |
|  \\    /   O peration     | Version:  2406                                  |
|   \\  /    A nd           | Website:  www.openfoam.com                      |
|    \\/     M anipulation  |                                                 |
\*---------------------------------------------------------------------------*/
FoamFile
{
    version     2.0;
    format      ascii;
    arch        "LSB;label=32;scalar=64";
    class       volScalarField;
    location    "0.01";
    object      nut;
}
// * * * * * * * * * * * * * * * * * * * * * * * * * * * * * * * * * * * * * //

dimensions      [0 2 -1 0 0 0 0];

internalField   nonuniform List<scalar> 
29768
(
3.97282620796e-21
1.45072713481e-11
5.72148444308e-22
6.52594266795e-20
5.91030535383e-13
2.72365508725e-11
5.45125436423e-14
2.42150783741e-10
3.30415914867e-23
8.1056331665e-24
1.98144009461e-25
9.63204628313e-24
6.15485397803e-23
3.01599109511e-21
3.04752436462e-22
9.03914810121e-22
2.51887709122e-25
6.61439182471e-24
6.71178052743e-22
1.41001078548e-25
1.57001593295e-25
5.42905168527e-18
3.2445796572e-19
6.78474496246e-23
9.96180403146e-26
2.05599744668e-08
2.52493826038e-24
2.15697112826e-08
4.736667471e-22
2.22942264108e-09
4.98769868001e-23
1.27772170848e-17
3.49838265331e-24
1.38618066585e-08
2.32920688155e-19
2.19748333404e-24
1.67043936346e-09
1.15420846152e-24
1.44670959433e-23
1.25758385212e-27
1.90787166646e-08
2.10198943751e-24
1.69884355254e-08
2.45929271409e-25
3.72541256179e-22
5.55867478301e-22
1.47254801789e-21
4.02658513571e-20
6.87467957784e-18
2.91608280633e-20
2.35799388522e-24
1.85581313734e-08
1.70618710339e-21
9.15518996597e-09
8.75087190123e-26
1.05430970389e-19
2.11385523443e-25
1.44930266523e-08
1.5971970293e-22
4.64221792033e-19
4.13301536902e-09
1.96006778064e-21
3.37754601405e-23
1.86826337743e-13
3.9953761803e-21
5.06147168932e-12
1.04201960974e-18
2.86946824079e-19
7.92176661296e-17
6.49569640807e-18
8.33039964461e-12
4.86514394696e-23
4.15307587833e-22
3.38350317389e-10
3.00435513472e-13
3.03218396836e-15
3.42689626621e-15
1.00053197709e-16
7.67626514449e-10
2.38885855991e-16
1.93422162914e-22
2.80423636758e-21
8.10385105475e-18
4.66616121675e-25
1.16638149025e-14
2.5345338534e-14
7.40107076732e-23
6.79819063785e-09
1.71695167006e-08
2.47886922359e-23
7.27751554872e-09
7.51870532513e-18
4.60657757454e-09
1.26839255014e-24
2.43054499238e-09
1.26328762498e-18
3.19630525755e-20
8.0152407261e-13
2.42996524197e-09
1.95065593776e-24
5.96843426982e-10
2.24700915639e-09
8.66668458282e-23
1.10104883301e-09
1.65164935223e-15
4.58958829236e-13
2.57402226563e-20
1.44187062445e-17
3.83434111007e-16
3.10196221957e-14
5.67476583044e-21
7.17313954176e-16
1.84184363077e-18
5.39576266132e-16
2.63531044034e-15
9.89310831657e-21
8.80037633658e-16
1.70344518908e-23
3.16326039306e-08
7.3634925885e-23
1.62093011813e-14
1.19224131037e-21
1.55994941971e-17
5.64714868653e-12
2.54888680194e-08
5.41633400584e-18
2.35087558751e-08
8.71144960024e-18
1.64906791274e-23
1.30169701545e-12
3.05097353227e-23
2.29122208581e-15
1.13898723749e-20
2.99759398296e-08
8.86423485345e-20
2.60470257736e-08
3.8885405343e-18
3.17496151923e-08
3.3808070077e-19
6.42341158564e-20
4.35674574288e-08
4.22845783216e-20
1.52049751567e-20
5.76199708198e-09
8.0989296779e-20
5.50185880952e-18
7.78942915375e-09
9.62455305593e-19
8.64097227752e-17
2.35681070738e-18
1.2338702576e-24
8.14986623681e-19
1.31639862068e-22
6.96908993639e-19
4.1828451803e-26
4.96256460229e-22
1.31944734852e-19
2.42741185796e-19
7.83096863827e-22
5.80467719562e-20
1.267385013e-08
2.25921358246e-08
6.22024930344e-22
1.68737851847e-22
6.68731887528e-09
3.99595945042e-26
9.43744905153e-09
6.907637226e-27
3.19421880987e-25
8.12497665538e-10
1.81108602329e-23
8.38382540713e-25
1.55057999372e-18
2.2760954308e-08
2.18199083712e-18
4.44637382601e-18
1.49831222891e-09
3.72196536575e-17
1.52344130483e-23
1.61922330694e-16
8.92795603532e-09
5.21830249154e-16
5.65938995896e-19
3.35605124314e-16
6.67570119894e-09
3.54445753669e-18
1.63159349431e-17
3.54739402305e-09
1.7645833078e-09
1.47051027043e-13
1.15346251168e-22
1.23443854837e-19
6.26309664397e-17
5.63333072999e-22
6.29273819168e-18
7.45339053832e-25
1.10253636142e-22
5.08865499556e-23
3.35688958e-10
3.44060808371e-21
1.48258082837e-22
9.26764902563e-09
3.1519835781e-23
1.24913497684e-19
3.47109171006e-22
3.67438773741e-23
1.32029269513e-19
1.66702603778e-24
6.72315226067e-20
2.49125096143e-20
8.57556511426e-23
5.40571759896e-23
7.3631699641e-18
3.58031110486e-24
4.27489234001e-24
3.34991379038e-08
7.67866974947e-22
9.65902262047e-24
7.19321891793e-22
6.79393068373e-09
1.29885978807e-09
9.3277644751e-11
2.65343780272e-22
7.59792172847e-22
1.10953872709e-22
2.6577589357e-22
8.28459575068e-09
5.11413784553e-18
8.315490291e-16
1.45885848178e-11
7.08387115971e-20
2.32136769426e-20
6.66642796527e-11
5.47553220851e-17
8.27293315102e-09
4.26008011007e-09
6.0589550712e-17
2.33468340918e-16
1.70716331447e-21
1.68786001251e-19
1.94526596844e-09
1.4131568075e-11
1.91957012658e-23
1.660154295e-22
7.96511527476e-21
1.87406102616e-21
2.76298904776e-24
5.52843842491e-26
1.0209847878e-27
9.78041304961e-29
1.3118358173e-22
3.40782754228e-23
2.98709083054e-24
1.07498966342e-23
2.61007771619e-24
1.57860853129e-15
1.94991116785e-08
4.45572730839e-20
1.56759502362e-08
3.03627401501e-18
5.86140634057e-20
2.37660005818e-26
1.11385602512e-29
2.35668330728e-10
6.34961357531e-11
1.90539947163e-11
1.67263928281e-15
5.41697400688e-22
5.03980011338e-11
9.33395996649e-22
6.16026984896e-20
3.22966464709e-10
3.9494744216e-20
3.34382957225e-10
1.48907427196e-10
9.32049064009e-11
2.20432964356e-10
2.05570889782e-17
2.18721272613e-20
6.00167763133e-24
3.05773161919e-10
1.233348502e-16
5.85258221562e-09
7.97422423005e-10
2.168934772e-24
1.65804596176e-17
2.02937695227e-09
1.68414507957e-11
6.22764670558e-18
2.08326046655e-10
3.24373834875e-26
1.19606296693e-10
1.68098100156e-11
6.84957300954e-20
1.57732663589e-17
1.146818664e-10
4.31139862019e-10
2.87871075761e-12
3.34072088489e-10
2.239345348e-16
4.77151927796e-10
1.2345976587e-16
2.07223842981e-17
7.64240938935e-10
2.56908084725e-16
3.29108365813e-15
6.85344176668e-09
1.82401900476e-16
5.6991546552e-19
8.22051887561e-17
1.11770688729e-08
2.58490126795e-17
1.6932561208e-09
7.99797650445e-18
5.5267357765e-22
1.11201140701e-17
9.41375941404e-21
5.87051077761e-24
1.63081943701e-18
1.66185403509e-08
2.31753391946e-08
1.13268428284e-20
6.74221833429e-24
7.26792532228e-09
2.8373381604e-23
1.40144693481e-15
3.17540545904e-22
1.7556037433e-16
5.16913098078e-10
2.77385646214e-26
1.30624510825e-08
3.38954869818e-24
2.25431538092e-22
1.17870765911e-18
3.47946827382e-09
3.98031863854e-24
1.85565682658e-08
8.06423768213e-17
5.26260580084e-18
7.88305883314e-20
2.8955882807e-09
1.72587790392e-17
1.24576038696e-17
3.15402405325e-08
9.5178273884e-10
5.39370840718e-10
1.03828317273e-19
2.01576491005e-18
2.39442302863e-15
2.66135478609e-08
4.96346488001e-08
1.0722183629e-15
1.34206894976e-16
6.15541992369e-08
1.89144353393e-16
2.9454454716e-16
2.44706040641e-17
3.37303337793e-15
8.4448056169e-17
1.52910752899e-13
4.20888718154e-15
6.59103632484e-08
7.71324654126e-24
7.21480244484e-25
2.30604725053e-09
8.4496972774e-09
1.99550462297e-11
1.92103144862e-07
3.33755730262e-11
7.64752113025e-10
1.01099007234e-07
2.84446486183e-08
1.04591510458e-07
1.03689205409e-07
3.34108250705e-11
1.23957823551e-07
4.56528991878e-08
3.85721440753e-19
3.42009200907e-14
2.348402224e-16
7.14234219543e-15
6.98762416053e-14
2.50896724664e-14
1.8552925553e-14
2.39103909128e-07
8.7242401712e-08
7.762602614e-13
1.04872996441e-15
3.53495001023e-10
4.1435547443e-12
2.24928037729e-11
1.66080187828e-10
2.31996079603e-10
4.9080637918e-07
2.10937694391e-07
2.23881816435e-09
3.89046368532e-07
2.76885400779e-09
4.97653283128e-15
3.45804532836e-13
2.78426954659e-08
5.76206227588e-12
1.4298433282e-10
2.99872641368e-12
3.94558715178e-09
4.01166022488e-09
6.09542010924e-09
2.04916202913e-09
2.28035285397e-09
3.94015525824e-08
1.24615368082e-09
1.11970883515e-08
1.43929217698e-08
3.77591602254e-09
4.88008870306e-09
3.36525452851e-27
4.69394879649e-22
9.68051161518e-18
1.61961103226e-21
3.20944810316e-23
4.95665104087e-21
3.24451952324e-20
8.16749296276e-22
8.70844224098e-23
8.31844518121e-23
2.29587262316e-22
6.70848533311e-30
7.02854607302e-16
1.2379710102e-22
5.26912137856e-19
6.62587812239e-12
1.92921127595e-12
1.60259362635e-08
2.29760090842e-08
3.36316264712e-12
1.43079132483e-12
2.28752365363e-08
4.14698188299e-17
2.42817788283e-08
6.76574938876e-14
2.39603626854e-08
2.3554532215e-16
4.20125678233e-16
2.7572413849e-08
1.4652078383e-08
1.2296440056e-08
1.79024149546e-08
1.44650892731e-08
1.96095926471e-08
3.22190272684e-09
1.69432168591e-21
3.06828386975e-20
1.18190708347e-12
1.09182988033e-16
1.38792166962e-16
1.53210318927e-20
1.35549082514e-08
1.13098081681e-17
1.63837995052e-09
1.07634569748e-08
7.30739980234e-16
1.35117505138e-15
3.3035059372e-17
1.17663946274e-09
9.16503088605e-20
1.51687904706e-13
1.15079460295e-20
1.08662869012e-13
6.2760558125e-19
6.52121389067e-20
1.42260398752e-09
2.82744248025e-23
1.75849605967e-23
4.33324907326e-23
7.83557601958e-24
8.59193291515e-23
4.38447212763e-24
6.84880595631e-24
1.70744544974e-08
7.45037123064e-09
1.91302705725e-08
1.54194899794e-08
2.10792030664e-08
1.44670918534e-09
8.34922979882e-23
6.57612798952e-23
1.16255301579e-24
1.83745727898e-08
1.8575730767e-08
1.68491877328e-08
2.06687030931e-08
6.60699567884e-25
6.56767590721e-24
6.82874505598e-24
2.8530022518e-08
2.14793365434e-08
2.43034976741e-08
2.44183985915e-08
8.86695831506e-11
8.35549650504e-11
1.7065649784e-08
2.04843461485e-08
7.20819597258e-11
7.38872295062e-13
1.80468226426e-08
1.63949806705e-08
4.20194972849e-10
1.80965026255e-08
1.51299632122e-10
2.22236252222e-08
1.04677154976e-15
2.81279479628e-09
4.40049568228e-14
1.95060886007e-08
2.48296347851e-16
3.48789132939e-15
1.01316281054e-08
3.56866397616e-15
1.13230243342e-10
2.73320114643e-10
1.65639749127e-08
2.80976060875e-08
1.38304526223e-18
1.21830274814e-15
5.950414658e-08
2.5346039362e-08
1.00672277029e-08
2.45460512166e-16
3.18591614712e-19
7.01926031777e-15
2.66281790695e-14
5.8587802539e-08
7.6486640138e-11
7.75180631796e-24
3.89080160135e-21
1.11705508499e-18
2.38669623359e-10
2.31071307558e-19
1.08205462446e-21
4.97303004518e-11
2.01765418259e-19
2.01908679958e-11
9.52996845856e-12
4.42456190229e-22
7.43391623877e-20
7.78679530605e-12
3.73618647055e-14
3.47155858559e-10
1.88359551445e-14
6.24478795806e-12
2.00373975574e-17
1.50530454969e-08
8.54331417894e-12
3.9937903571e-16
7.345143232e-16
4.18246956691e-16
1.27985756748e-09
1.19863174682e-15
1.37520326675e-12
3.26245592871e-16
4.54276204927e-14
2.96581883044e-22
4.52746641033e-16
4.95916842917e-16
4.14201997864e-16
1.15193046073e-19
6.99996970441e-19
2.40743784107e-18
4.38533227618e-22
2.37829388209e-14
1.12213320968e-13
7.65724097793e-15
3.81351767512e-16
1.82226497201e-18
1.25277953394e-16
3.07646226351e-19
1.26512307781e-20
5.44733611185e-15
5.33192999507e-14
9.48102878014e-19
3.15123065415e-19
2.25263898466e-12
1.09459196215e-17
4.20539329133e-17
4.64402514447e-12
2.47107129992e-11
3.12048968008e-16
1.45226379216e-17
9.8992660705e-13
1.32764451707e-15
3.85031073387e-10
3.34351912131e-13
3.45965462509e-11
3.51996785102e-16
1.80216593376e-13
1.61214818492e-12
7.64658108455e-19
1.83192101723e-13
8.35546838402e-13
2.22823780887e-14
1.28882759568e-16
1.02389193203e-15
3.24949923051e-12
5.78174845723e-20
2.67401578997e-15
8.87448951841e-21
2.44829029877e-14
7.27220217294e-20
2.03879068189e-18
2.69700420785e-20
1.55090970283e-10
3.60833059167e-22
4.75063214271e-10
7.19903057112e-17
1.76971958071e-18
2.15013600651e-16
6.34797295561e-21
2.18763449166e-14
1.07732517885e-14
6.87476983576e-20
4.04976218161e-19
1.54344211854e-14
2.95883832664e-17
1.42065446662e-14
1.27370348584e-20
6.69225532119e-15
5.09542552529e-17
1.31478631305e-19
5.21970709326e-15
1.04929245405e-22
5.04507466485e-10
1.25824553664e-14
9.2741602558e-09
8.93559451426e-17
3.81573962336e-16
5.93226123516e-20
1.3059228821e-08
2.52844081857e-16
4.18808416045e-17
4.42882435101e-08
1.45719935944e-16
4.32818342461e-08
1.03405343279e-08
3.24012434207e-14
6.33263668931e-19
2.1633613431e-21
3.08756269287e-09
1.19606530218e-17
3.29748259591e-08
5.03749932533e-20
1.97697708431e-08
4.20185959361e-09
1.12459377162e-22
3.93114145433e-17
2.96009262166e-21
1.88060809738e-08
4.65795233783e-18
1.66735607525e-08
4.88699777138e-09
3.99998492655e-18
5.43382235122e-17
3.81265799213e-19
1.44936488307e-08
5.07527400486e-19
2.80055449556e-09
7.53339295524e-19
2.57302705356e-09
5.86638084691e-16
1.37110456156e-18
2.47873742815e-09
4.55259720785e-15
1.10432561147e-16
8.21697105272e-14
2.95629089666e-12
1.16854547645e-17
8.86279036233e-15
1.28971665836e-09
1.17559479663e-15
2.53927529983e-09
1.08571102385e-14
6.78503081265e-14
1.92281050837e-17
5.05002051781e-15
1.56763576424e-09
1.64179168669e-17
1.52245768077e-09
2.99926444946e-16
4.98534682319e-10
1.54932517107e-16
3.23472958427e-17
1.31840951471e-09
3.09278077734e-19
2.19299813482e-09
6.29407673752e-19
1.55218536726e-09
3.22199186916e-19
2.76964895033e-17
1.15200370803e-13
5.66575800467e-16
2.60936821617e-14
3.42346033443e-12
1.71057574685e-16
9.32010228996e-15
9.97173975479e-13
5.38085937323e-31
5.94960151267e-21
2.38652883034e-27
6.68786239702e-22
5.21772029571e-21
5.61398443106e-15
2.2405883643e-19
3.30748173159e-08
1.59907137383e-16
2.12058660169e-21
6.29925161651e-16
4.6727323937e-26
2.34383056876e-22
1.12013161915e-16
2.50965487636e-08
1.4666780741e-23
1.54111080183e-22
2.50199459262e-19
1.64045277197e-13
4.89069784987e-10
2.7455131167e-15
1.49803209611e-12
3.49304161976e-13
3.48505626349e-15
1.4617250624e-10
1.1073951592e-14
2.42959274781e-08
2.83559974885e-08
9.2990529917e-15
2.24398053648e-15
4.4714224805e-12
2.63245697386e-08
7.50823560067e-16
8.24800937606e-17
4.74655743395e-13
2.96045086432e-08
6.17349489066e-17
1.39925034007e-16
2.02539254839e-08
7.94030444744e-19
8.28738308528e-16
3.78015922568e-21
1.50792252044e-15
5.10603081479e-15
9.90988559007e-15
6.27345457854e-15
2.1428917121e-13
8.42441354885e-16
4.12002292449e-15
7.93977308146e-15
2.03164755013e-18
3.43873099949e-17
4.04639142171e-17
1.01941894094e-14
3.38482851178e-19
1.89889256721e-16
1.37128143975e-15
2.71895043855e-18
2.72102015422e-08
4.31874858643e-18
3.30843091904e-08
1.80331556625e-17
1.92624886412e-19
3.03797810386e-08
7.96716375541e-18
2.57293603378e-08
2.9070282151e-08
2.71800858959e-16
8.90250001755e-17
1.35688970123e-16
2.86912507549e-08
1.50560577274e-19
8.86159551338e-19
3.41751477963e-08
3.20153441657e-08
4.83268480502e-21
1.21229684967e-18
3.17116077454e-08
1.59255940054e-08
2.68377489239e-08
1.84316533442e-08
2.2422712659e-08
1.15290640765e-08
3.07418057819e-08
7.11956443122e-09
3.9322482498e-08
1.1706614843e-08
6.89414699163e-09
1.68046194383e-08
4.73828741006e-15
6.8983546551e-12
3.19452428439e-23
2.31685305267e-21
7.7013208535e-15
2.95901945433e-23
1.19808723707e-14
1.16995951871e-08
6.07387361222e-09
2.08947034108e-08
1.22919671412e-08
6.53815004664e-09
4.66319745954e-09
2.68488570308e-08
3.05362406707e-08
2.30078556234e-08
3.12785140523e-08
1.60047917288e-16
1.00743066226e-08
5.64321987876e-15
1.02704154758e-09
1.64784400485e-15
6.14348409598e-15
1.26000860947e-09
1.83164378117e-08
6.84654977226e-09
1.44731461997e-08
9.38146101639e-09
2.01449649257e-15
1.16113691245e-19
2.57151605101e-15
3.18720463434e-20
1.87971447254e-08
2.41778423302e-08
1.97545634691e-08
2.2843536456e-08
8.49100255102e-09
1.57542754726e-08
2.48922267513e-09
7.59946092281e-09
1.07466644521e-18
1.23109516586e-17
8.42280270432e-23
4.37276934744e-25
6.59547961297e-17
2.81481473596e-23
9.03050894966e-20
1.31837685342e-08
1.50184293007e-08
4.50506058858e-16
1.37566751983e-17
4.85986658595e-15
2.1338603722e-22
5.3877345825e-18
1.12085219678e-20
6.72326488638e-14
9.9916820594e-24
2.10093028186e-16
4.35576343335e-22
3.02938573311e-18
3.44255327419e-12
2.33249569167e-18
1.30543740471e-12
2.05999211197e-16
1.95790651006e-08
2.36534239215e-08
1.99163583336e-08
2.22991763649e-08
1.58054736311e-08
1.48166675918e-08
1.61196328092e-08
1.59769573124e-08
3.38777321812e-10
6.53080231694e-14
8.65027373363e-11
1.43091236776e-13
3.01850698335e-08
2.7336519321e-08
2.68447047143e-08
3.04940772707e-08
3.21127689017e-08
3.22395870297e-08
2.86358368115e-08
3.44713990453e-08
3.32939347306e-08
2.24062177927e-08
3.12973198592e-08
3.17653203927e-08
5.69999298823e-10
1.51824264393e-08
2.23559071909e-10
1.19080260582e-08
1.72562416024e-10
3.5858593956e-10
1.54951674188e-08
8.92792509621e-10
2.14571738827e-08
1.35419792181e-10
1.86212249381e-08
1.55876591798e-10
7.35090590398e-11
1.85984167409e-08
1.82479953548e-17
4.43417462298e-17
1.05537739641e-08
1.37437168883e-08
2.84220285262e-17
5.19698886731e-18
1.47812672851e-08
2.36668533795e-08
2.64879035523e-08
2.46376959029e-08
2.83908097913e-08
9.685906351e-20
4.42628904067e-09
6.01102014446e-11
7.60365686058e-09
1.12667336693e-19
3.33486973132e-19
9.87037312924e-10
5.12367484788e-20
2.26511219526e-09
4.04677034429e-09
1.97287874993e-08
5.81514007548e-20
4.52975236344e-10
5.40199057746e-17
3.33432664251e-08
2.47360116231e-08
2.32856354948e-08
1.13292925634e-09
2.5344292838e-14
2.12536193628e-08
5.32135630696e-13
1.76472053022e-08
5.26712424721e-17
4.70400748121e-13
1.56484970071e-08
8.90277210522e-16
3.83862952145e-11
6.08940910603e-10
1.12794062996e-08
5.81221254273e-12
2.73163691637e-12
5.91349310732e-09
4.05395474398e-14
2.08968996365e-18
3.92184995539e-10
2.04690762311e-10
5.2974035915e-10
3.10978674689e-08
2.33455107039e-11
1.87232523453e-08
5.58346175059e-20
5.79334406765e-16
3.45252810899e-12
4.27494307525e-16
4.16205941932e-22
4.53154810614e-21
2.59952115977e-15
1.0308430663e-13
1.73186281991e-19
1.3988529357e-17
3.67589380394e-11
8.81248509414e-20
7.96636924842e-14
2.68625233443e-13
8.82948046403e-11
8.62864139437e-09
2.02256367212e-10
3.28548390987e-09
6.60208137382e-10
1.40621267805e-08
2.76138461478e-09
9.3053479742e-09
2.3096896666e-09
1.0059185327e-09
1.11550054417e-08
2.22147055857e-10
2.32458581357e-11
7.06283429513e-09
3.08790157898e-08
5.78164882818e-11
2.14946635168e-08
2.37464801201e-15
1.2042847395e-19
1.39079941373e-13
3.61298201302e-14
7.6234529837e-18
1.58582778533e-13
1.99554736097e-19
7.56854680744e-09
1.29417854438e-08
5.67309472551e-09
2.80559875699e-09
6.39481203954e-09
9.65223761068e-09
1.16629324263e-08
1.38258992348e-13
5.32416239568e-16
8.99852994117e-19
1.70018969166e-15
5.29090086709e-16
1.2026144264e-09
5.83399040094e-13
7.87655189776e-09
1.053401085e-09
9.46431206358e-09
5.09038575226e-10
1.45855839113e-21
8.39844810221e-21
1.88999474976e-14
6.25119107948e-09
5.69502824387e-09
2.52455392807e-09
5.51850241914e-09
3.44564326953e-09
7.16344078849e-09
1.45037888821e-09
1.57053101509e-13
2.25394529866e-12
2.27382926419e-11
9.29340093766e-10
1.12824636672e-08
9.58659741027e-10
1.83164898883e-08
5.94400963132e-14
1.35712047223e-13
5.4036093634e-14
2.57071610541e-11
2.19497955897e-12
5.00797659275e-11
2.25288664988e-12
3.52248453831e-20
4.33468828199e-20
2.81109067768e-25
1.31211718104e-16
7.04763739976e-23
2.44856226828e-19
4.72147085776e-19
1.13006931243e-21
2.06511078655e-22
3.95217667181e-23
8.62341578878e-25
1.61273357379e-23
1.10742404801e-22
3.29909380896e-23
3.37608533916e-22
7.87069913407e-23
2.35642851029e-23
2.96511641804e-08
4.52634462561e-10
7.27130280238e-09
2.09378579544e-13
3.7973976316e-14
9.303079519e-15
8.61492324594e-13
1.05827418814e-08
1.09781456871e-08
1.26283983524e-08
1.56144427308e-14
5.26115056719e-15
5.05293281758e-14
1.9144046136e-15
1.83909787992e-23
1.41491807182e-24
5.1404822454e-24
1.4586474338e-24
2.85372071633e-25
2.20220616781e-24
8.38668229263e-27
1.9161303696e-17
2.24158890389e-23
7.78302865883e-19
1.38452153542e-21
1.28749519326e-19
3.17550131411e-24
2.39550364987e-17
5.36009214954e-21
3.47332511795e-10
2.89570443459e-10
6.79493800135e-20
3.46858595619e-20
8.7776915199e-23
2.51078392341e-10
2.39256138132e-16
1.272328852e-15
4.01347054926e-22
2.91728045811e-19
2.06673365255e-17
6.49107994941e-15
2.25399670545e-14
1.33991306416e-17
8.09943654342e-10
8.15957981789e-10
1.01975073545e-09
9.51522803909e-19
5.60979486799e-18
7.42275114544e-10
9.8034751062e-13
2.97519385209e-19
2.35819773262e-18
6.00067692927e-21
1.86379262257e-16
3.8692645748e-15
3.0215890478e-15
1.01667971141e-08
1.26041592291e-08
6.42780215419e-09
1.55882780146e-08
1.67724156115e-20
6.79941706213e-22
7.3322823107e-24
1.12107306036e-20
5.8996672007e-20
5.74964032625e-25
2.15532300293e-23
9.09864756018e-23
3.04674013789e-23
7.43188108781e-23
3.98238628053e-25
5.53287125242e-09
4.95413250701e-09
3.34859011808e-09
7.29379007301e-09
6.08982787475e-21
2.99250760479e-23
1.37397307455e-23
2.53477238142e-22
1.65146102041e-08
1.78909349396e-08
2.46696463414e-08
3.08831671757e-08
3.30818603064e-08
2.75220967043e-08
2.91766270433e-08
3.28841400729e-08
2.45337348575e-08
1.28469516112e-15
3.69967851855e-14
2.500800037e-14
3.90141702419e-15
9.57411848265e-09
6.09710807784e-09
7.00104738463e-09
8.4500616089e-09
8.06666600155e-09
3.10798083055e-09
5.26141953262e-09
3.48380647505e-14
8.62579669478e-16
1.2046047465e-16
2.81746396477e-15
6.25624725663e-09
1.1333840067e-09
9.15453078096e-13
9.92132629766e-11
2.62203264159e-08
1.9523657177e-14
3.86135663269e-08
1.88393560107e-11
1.78724410857e-10
1.74382728367e-14
1.80252338836e-14
6.32027739737e-15
2.52850197111e-14
6.51669302789e-23
4.25375259709e-12
2.43753224503e-20
4.64313912055e-10
1.03810195261e-21
8.64672018448e-20
6.07174825677e-22
1.54518529531e-08
1.97515948007e-08
2.39752546677e-08
2.0505609336e-12
3.80627192437e-12
7.65113883743e-12
8.85722997275e-14
4.95091698462e-13
9.64665868464e-18
1.38432815466e-10
4.06726167703e-18
2.65630810172e-24
2.70510186387e-18
1.75754291144e-18
3.61122864649e-11
8.7857170817e-10
5.60322838438e-10
5.67984783183e-17
6.40946298618e-21
1.69449218519e-17
7.67503188228e-11
1.87235619786e-10
3.5276154459e-10
3.31171964527e-08
5.97658256335e-15
3.81659908219e-13
1.60245466267e-08
2.19439272898e-11
5.28456898931e-11
1.51620865551e-08
2.92308649047e-16
5.42153630195e-15
4.50391247491e-08
2.3171457546e-08
7.22029618258e-16
2.59961851094e-16
6.71609991566e-16
3.5878295016e-13
2.02848815346e-13
6.22380573153e-20
7.06749812617e-21
3.4573300306e-21
2.88656041085e-21
4.91408253753e-22
9.41171689414e-22
3.40792341388e-21
6.17343073371e-28
9.36741571509e-21
2.67866870238e-23
2.659933903e-25
1.47173151015e-21
4.91529959442e-25
1.52127803727e-29
1.50857400669e-17
4.44146098107e-22
5.05435885984e-23
8.98068285572e-25
1.08897733519e-23
8.32783594143e-23
4.80230346738e-22
3.9660613131e-25
2.1131304525e-24
6.78960790749e-28
8.95840103166e-28
1.94711607738e-30
1.15743399327e-26
2.11790020713e-25
8.40782280902e-24
9.39515966984e-31
2.38764186163e-21
6.54540116274e-24
2.65664236523e-21
5.31179396991e-21
7.70898485132e-17
8.97904382111e-19
2.27582575468e-17
1.27290594706e-25
2.95813303725e-25
2.00198469254e-29
4.37727379469e-21
7.63112350525e-20
3.113399329e-19
2.67777475039e-17
2.54916552211e-08
2.15977774999e-08
2.56339363288e-08
8.2690380248e-14
6.22978428544e-14
1.18640438501e-13
1.08322324982e-13
1.12362557912e-10
7.8413434397e-10
1.02632464221e-13
7.05369413842e-14
2.32591818289e-09
5.20629821948e-09
1.54061025501e-14
6.78409286292e-14
1.28282582276e-08
1.85961325225e-08
1.53409819438e-08
1.67811472227e-14
2.23191842898e-16
2.51141692044e-15
2.14903463412e-14
1.26808778216e-08
1.47684844809e-08
7.17467846445e-13
1.65536782924e-12
1.93223902893e-08
1.82740626753e-08
4.83383430111e-13
2.5102502973e-13
7.68728697177e-09
4.37236762628e-11
7.17224797942e-09
2.66257863316e-15
9.10485416837e-17
4.68185449715e-08
5.89821348901e-08
1.12050713475e-08
9.12781349305e-09
1.02925803595e-17
3.89408135563e-08
6.07943369752e-09
1.00512055255e-08
1.64520448944e-08
3.18784306374e-09
2.43421678145e-16
6.74505523914e-17
3.9139868977e-17
3.87484801559e-15
1.09528340966e-09
4.26116201369e-09
1.6423231122e-08
4.66561332503e-09
3.23336486853e-09
1.82524966935e-08
2.26873600735e-09
1.66686559153e-09
6.89507166403e-10
1.85258433322e-09
5.20380240199e-19
2.73871698507e-31
7.7454266791e-26
6.26176358752e-24
5.74212293228e-27
2.39552522545e-20
3.55257764502e-23
3.64750229765e-10
6.19580369503e-10
6.71630266049e-10
7.17103188114e-10
3.31492920167e-10
1.04095177484e-09
1.78089898792e-10
2.91149310867e-14
7.09729630116e-17
1.42762835078e-16
3.3465378893e-14
1.76154124205e-14
3.22818362952e-21
1.79117900158e-19
8.33307561667e-15
9.88655840642e-10
5.69472916253e-10
1.14746230123e-09
9.615413991e-10
3.94644913208e-09
2.74922130442e-09
1.74641277591e-09
1.08237904234e-09
1.18376955635e-09
5.64691667315e-10
4.71448553599e-11
1.20750847857e-09
1.69836587426e-09
8.72793858218e-10
1.84603226276e-09
9.14145152617e-11
6.05269451572e-11
1.53069393174e-10
1.07202376921e-10
4.50301495376e-10
2.23159945084e-10
1.40279770413e-10
1.72199935956e-21
5.50188288739e-18
4.38001963842e-18
3.25037938716e-19
6.86018807969e-23
1.97885083097e-19
4.89353471284e-23
1.38959620651e-19
3.87771541669e-19
8.03383505937e-24
6.4049089154e-17
6.06753506131e-23
2.36874339139e-19
1.97551722571e-10
3.23850836705e-10
3.49854471299e-10
2.91870200289e-10
4.33810172742e-11
3.06004202257e-19
7.55080416585e-18
8.72076869933e-23
7.21095611495e-22
2.81697138574e-18
5.37013417655e-24
3.73237317098e-18
1.85188260323e-10
3.61691404777e-10
2.52650967699e-10
2.75851667494e-11
5.0398155665e-11
9.51478279384e-11
1.10766549018e-10
1.17511607112e-10
2.50417749976e-10
2.01410993224e-10
2.56534850033e-11
2.16088320686e-10
2.35298030555e-10
1.41826507834e-11
1.07323205572e-10
4.90651644309e-11
6.56414815209e-10
7.50872767939e-10
1.21548004941e-09
3.41943459902e-10
1.76428121059e-10
1.94147866666e-10
9.71618046301e-11
5.94306341051e-10
4.16485692728e-10
1.06561279864e-09
3.6284970231e-10
2.81615625894e-20
1.174132254e-22
4.84638327553e-23
3.30504490996e-16
5.23985235927e-23
1.54109177328e-18
2.24037512217e-17
8.68081078912e-23
2.3490128449e-19
2.90899248245e-25
1.02598486741e-22
6.76014818394e-27
6.58808235316e-21
1.70913650605e-20
3.63533998763e-11
2.60380019091e-11
1.22542014031e-09
2.07762274154e-09
1.85890984735e-09
1.8541955767e-09
1.58708652467e-10
2.68076664704e-10
9.66537260024e-11
2.11140571726e-10
4.47286616375e-11
1.5885250024e-10
1.25825760382e-10
2.28028894701e-18
5.15389099863e-20
3.89842483232e-18
2.60292174527e-16
1.3677106287e-08
5.04269470454e-15
1.31032791276e-20
2.60288125168e-18
8.5216764002e-15
1.2882742067e-08
2.79132362954e-09
8.79834220601e-15
3.86799978638e-11
3.13291558761e-13
3.18308666365e-09
2.34354063501e-08
5.5247176262e-09
2.51254533542e-08
3.20899551465e-09
9.41331096056e-11
5.60813116273e-12
7.04476419825e-10
9.48324713212e-10
3.45728872051e-09
7.10095862339e-09
5.71412554827e-12
6.13855356547e-09
9.38736184812e-09
6.52936256893e-11
2.75798910625e-11
3.62819096227e-09
1.00135273141e-09
2.03182293909e-09
2.00114737639e-09
7.21873703268e-11
4.94963178061e-09
5.3631907355e-09
2.95571219199e-09
5.48195252461e-09
5.4416603169e-09
2.87286649987e-09
3.14385764323e-09
5.53873963093e-09
4.07012227293e-10
3.29534782666e-10
5.91680101969e-16
3.11066281332e-10
5.91559630948e-10
8.3613762133e-10
4.95802884742e-10
9.19549732398e-14
1.15071791478e-09
1.97906609119e-18
8.20311458804e-16
4.30802187277e-10
1.20288264403e-16
4.35255880191e-10
1.18728000232e-09
1.34279294292e-10
1.44451600357e-12
9.69821673021e-11
7.46360912379e-12
1.24730925079e-09
1.16611621168e-14
1.53718541974e-14
1.61814833104e-09
4.64693311484e-10
3.16334101288e-10
2.46015689749e-10
6.07589251197e-11
6.33761996943e-12
9.39246669981e-12
5.43105954708e-11
8.98950014632e-12
4.09582726927e-11
4.59510481422e-10
6.28085907726e-10
6.42831513243e-10
4.25941093887e-10
7.28499745065e-10
9.09478298584e-11
1.93085638833e-10
5.80287318957e-11
3.44116108131e-10
8.30355316776e-10
8.522518066e-16
6.41292413974e-15
1.17662535061e-09
5.74927127608e-10
3.34641118166e-17
4.36071745052e-16
7.55310618211e-10
7.01469130556e-16
2.05850775021e-13
1.05567131657e-09
8.34140410398e-10
2.58565956535e-13
2.6355997702e-14
1.60977310101e-09
9.16204409252e-10
8.40952718291e-10
6.17027555874e-10
4.64544618556e-10
7.16688555857e-10
3.73294138817e-11
9.79612176592e-11
1.65613127768e-13
1.88461721818e-17
7.7402649268e-14
1.22511625281e-15
8.72270883223e-11
5.37705289584e-12
6.49462815602e-11
3.05471834033e-14
5.68106996526e-11
9.15531837072e-14
1.72473891338e-08
1.53029304891e-08
1.0764430145e-09
1.10014015304e-09
1.51264961316e-09
1.20221084551e-08
2.26427872832e-08
1.88819022881e-08
1.60098021142e-08
6.58190319508e-11
5.6567584639e-14
1.01064487044e-13
2.24430340094e-08
4.95576528828e-11
4.96666001329e-19
1.54573181049e-15
3.28837639356e-13
8.24878521256e-12
8.05151232834e-15
9.7445718972e-14
8.66009252215e-09
2.50265599186e-09
5.0977072286e-09
5.13328254985e-09
9.36353608856e-10
1.08174710612e-08
3.02712431208e-13
9.55420002797e-14
2.20049577924e-13
8.19050614274e-17
3.65416145179e-15
1.07428145397e-12
6.69329090986e-13
4.26987079164e-13
9.86796263512e-12
4.38356186591e-14
4.06558117509e-15
1.51896137961e-14
4.34573330264e-13
5.88256816299e-12
8.84260680107e-10
4.00330201407e-09
4.3481623422e-10
2.70279669011e-09
4.61770998129e-10
4.55398719854e-10
7.90776619468e-09
1.26490553563e-08
1.09448330627e-08
9.7558055319e-09
1.40572639963e-13
7.42056478015e-16
4.59957624271e-16
1.4041114668e-08
4.88598432214e-16
1.60514491627e-13
3.58317502554e-13
8.48405236083e-10
5.6261455874e-09
5.69548221171e-09
2.32736677927e-09
8.64621114142e-09
2.80791223354e-12
9.49466996774e-19
3.43728614484e-17
3.57388005726e-13
5.39246283978e-16
1.81881881221e-13
6.45233963309e-13
1.68084157011e-08
1.66197526331e-13
7.95202832614e-14
2.80920094545e-14
1.91494469848e-08
1.17533175789e-13
6.1914565497e-11
1.84530042532e-08
1.907464516e-08
1.3544281236e-08
5.82625245343e-19