/*--------------------------------*- C++ -*----------------------------------*\
| =========                 |                                                 |
| \\      /  F ield         | OpenFOAM: The Open Source CFD Toolbox           |
|  \\    /   O peration     | Version:  2406                                  |
|   \\  /    A nd           | Website:  www.openfoam.com                      |
|    \\/     M anipulation  |                                                 |
\*---------------------------------------------------------------------------*/
FoamFile
{
    version     2.0;
    format      ascii;
    arch        "LSB;label=32;scalar=64";
    class       volScalarField;
    location    "0.01";
    object      omega;
}
// * * * * * * * * * * * * * * * * * * * * * * * * * * * * * * * * * * * * * //

dimensions      [0 0 -1 0 0 0 0];

internalField   nonuniform List<scalar> 
29768
(
2866161497.4
1316631.90132
28901754341.2
15970736.9021
3392203.25645
1606.03173493
844701.611522
458212.823308
83380260526.7
1091407089.11
201445618455
103820099.136
177846729.835
331565.965702
27832205.0335
1106298.94411
88121117989.9
151185479.557
34402770.0677
7092144331.77
1.03248954901e+12
6611057.71362
8206652.23505
722845149.276
168442560472
416860.886359
14675049244.3
468245.449925
148635690464
1159943.77023
23149152.1787
22742818.9389
4093439662.03
483142.139914
48301434.5881
455066022.349
1160217.92784
6474950438.11
2189911794.56
1.22278479766e+12
422786.657468
877757441.144
483154.621123
8877691796.78
240698435.545
1798989.93741
679095.002574
8511908.74508
21266346.1296
4105371483.43
14860261311.4
483160.887323
14653983739.4
561987.149371
11427432732.3
442934297.815
4730692924.06
397743.332523
7645366824.99
7642574044.61
293287.48488
664159262.306
853150417.153
1629962.25304
32706318.6557
660762.961503
77339070.0915
69390825.6672
17934213.7454
110151363.646
419920.821393
849950244.382
409478423.241
640062.861099
3229701.85791
16915216.1155
2803548.60864
6289246.49338
358302.107802
37602098.6073
9015002573.98
16044120966.7
473976315.255
7616541880.1
14059790.0641
7421881.33515
13511558.4142
259371.966538
416860.063136
260783364.54
285259.775008
17731320.0831
256478.27362
933499675104
344917.722234
8529776520.62
8450315717.82
586028.077394
384584.270454
90265271712.8
496228.298029
377338.090811
886672119.594
362742.3051
12446421.8795
253769.720636
64792582.6123
3222243.04633
8575962.33817
2133056.92056
133778593.987
44506323.1008
70204683.021
47337802.8485
12880432.7896
713370971.703
12330018.4361
3.86529213084e+14
405175.634459
3.3338867855e+14
26815977822.5
697129897051
218872389.172
9055129.08025
422809.049879
141919067.47
394873.112905
116182360.334
3.71349231353e+13
79469356.6255
3.58793841864e+12
188142150879
7.13761919033e+12
422824.725152
3925241223.41
422810.999732
4803408743.12
408173.155122
978807224.996
3961693451.31
425293.791014
903751345.721
1221186143.82
1219681.56578
2632833920.45
984411010.923
443511.662816
4477276.92183
56349018.6226
247869373.927
2.49124287226e+14
8886565969.19
6.12895467761e+14
3187439623.47
1.62553627903e+15
10855600368.3
260654326.137
3241553679.89
2.63530956682e+13
4961794631.21
442024.409627
422798.930655
2.5276900131e+12
2.5279975279e+12
562322.886631
2.34025714766e+16
468083.31888
4.05905921062e+16
7.23659439671e+17
1161823.96391
1.95206847002e+13
1.57575251149e+14
7247007.59847
422799.520386
11429863.8776
59819782.1305
1144337.72587
315197514.375
741459701.736
4586040.73873
101195.703207
26355082.8567
4419883.87141
832284.439773
111592.68158
9356550.54234
78753472.006
127872.055621
41708.8713269
1463770.80965
8669549.20404
161449022.02
2796381.22408
24002184.3715
2477640.6622
1341671276.79
9069995.64814
44191863.5037
646034.005441
224974360.832
158193919.022
422752.387025
104461930.524
2006297.46491
2880937.99741
90162047.503
2494863421.42
53847014923.6
27510042155.4
4204518723.78
223997729.581
461480588.311
521030615.957
4673390398.53
233924019.709
397676.202139
41857858.8351
103530143.71
60807261.2579
456122.421544
1160823.2388
2057543.42256
170054030.924
7876132.24845
39987168.4156
671506571.713
563132.524872
4024363.04193
14854767.9989
2446466.60288
197592614.961
835867182.957
763524.84779
15560549.8346
441923.648345
359781.36715
76114993.3556
17454658.899
3198480.8338
4029557884.18
1160863.13603
612502.386865
504512631.264
347288200.926
94628569.8396
21008672.6012
642724433.981
18088290456.4
979446522561
1.02245170519e+13
7622905.14414
29344207.9329
334773884.267
93024150.2807
383130354.241
23881455.0186
422788.125987
5748023417.21
422774.771157
494168796.511
9160701969.26
5.89260155984e+17
4.56863073439e+19
834424.380845
3044918.37188
2921964.22645
13371801.284
201273263.909
1012370.38274
2262493306.55
1303204090.96
289444.542016
8971289410.83
369423.053928
517490.182844
845739.341723
785239.812124
228195903.032
264578323.622
3967553588.99
452417.591223
778003.804783
468184.647883
1148637.55872
1.63930972827e+15
685757412.652
523315.433939
1e-15
1471108841.61
2437056.63673
1.15492940956e+17
1041398.88795
1e-15
33777375798.9
143789205.764
558179.99808
293721.432996
369841.722886
642903.247753
17235133.0699
331411.910674
122121007307
2484127838.57
1187879.84177
17522562040.8
87970887.6669
468261.615514
1.34460024852e+12
88777436.3183
637326567830
441969.537273
1.50687650909e+13
1146109.99815
13400348809.4
103942992.662
242746777.132
185605845.256
1.34555209951e+14
436660522.188
422778.063715
422800.967953
49873520944.6
1.29061383009e+13
468190.122846
4.89644785393e+12
1201302.61361
4355926518.84
97849.7002005
1159927.35804
1.2645927998e+17
422765.642088
1.07135571923e+12
1.11724407024e+13
43104906.8036
561960.795945
9.07565011267e+12
441951.968699
939467.589164
4336735.32912
638089001.451
562305.270269
60360526.254
24063629.4315
422721.981305
121988.306031
973509.762075
29801889677.2
33474726.0263
9764034.25658
422921.102401
443693.111445
78833.8674156
3167131.54419
395072.902243
39079573.9246
892684.825586
893965171.49
2072445.87174
1112689.89305
241953.599398
21820757.1718
55757.6455373
129647094.08
1386039337.38
126567.599042
86244.2602425
767292.293731
34981.0937261
286774.621233
255088.622697
52532.0238291
71922.2615792
47994.4990783
48349.7757652
1166890.82168
34380.8731943
62010.3850198
80023405.1547
8908756.92782
15140540.4781
5883844.81074
3805782.20151
1617518.10751
2224664.59136
33026.0592085
46337.3590438
2779368.79676
7089830.22826
412159.501924
2638223.52443
1445.86119715
2251.16260894
24615.9237677
23935.8249825
36540.3252312
155506.68749
26519.4928129
370.667572606
2184230.29112
94358.4632868
6220.61479607
260156.940812
17410.1683428
117734.193427
107518.971972
93217.9785158
99064.5797885
100128.343865
141794.336788
66170.6487035
223541.077474
82301.8553759
78274.2930355
117404.522486
90041.9126278
4.60172889066e+15
2.34638001795e+13
648813438.02
4942591986.72
31158004.9859
21093212.2652
345566675.39
1224365.91566
11483109.9791
12021477.31
4355642.33797
2.64578198209e+18
18998516084.4
1.30741979542e+13
1.89264527262e+12
11232320.6315
11233356.9902
394827.255671
422800.271634
8506451.38785
28411434.8745
408143.227911
92825781350.4
441981.265377
44299961.1634
441980.931504
22067493278.8
8906789874.93
422816.328529
483145.294574
562061.30531
483158.269704
483144.548137
468237.86676
1160009.43578
11119632.88
2599413.16141
1592438.59015
13247798.8744
963406.370108
21827216.5498
1029496.32583
1653238927.67
1173661.46789
483129.771912
77823269.921
45553302.6357
768739827.283
1173656.99034
25550469.3562
38307024.7548
56792816.9058
294941.994853
2841661.76281
859593353.583
229226.281838
157164907992
6499976466.98
23077371.808
127623035.945
9796167482.3
27036327240.5
15690419770.3
483154.964507
562560.247024
483163.171314
483148.358
468243.552292
1160319.86593
2.75345809779e+12
15206516.6857
743196460597
422784.197774
422784.900451
422778.869393
422792.211615
759801167752
4727973171.77
73205526045.6
422819.673877
468245.100285
441981.344689
441982.604148
24678.3187828
24679.9836981
422779.62552
422791.567615
24679.5732113
2750223.87386
422783.052891
394865.520651
1188927.10427
408132.452241
150874.296345
416877.470928
45940591.8802
1144319.01142
3973141.53175
468237.466332
859222581.399
79247828.5352
561991.683279
51205538.3391
592354.472691
253258.985553
105475.990833
405163.800613
851191332793
108456988.648
96258.5658342
441985.991704
442990.040766
47837512.5441
80486832341.2
10835123.2209
31417638.6285
127544.588523
1459969.36772
2.38966064488e+13
114402243.989
46147922.8746
281742.810293
15458253.6131
5166092943.62
108712.097151
5430321904.8
34869.7079238
2654809.63307
606070994.976
506310287.959
390503.572413
5005776.02128
21021.1497986
30950096.8748
408755.419604
319820272.979
175504.839486
328556.647315
36935486.7396
314338284.139
309501104.603
35938.5310659
8937938.18837
1170890.98
8336912.51635
3285179.62264
2126721120.53
50083529.6822
15910520.8545
4943002.04678
246882882.548
203359856.118
122949288.902
152178390.031
2479176.77377
377342.87237
5398466.44462
22837303.6238
26362815.9474
25805739.305
34143682.6624
263390643.437
12450275.3047
1178720.12919
150584930.34
11060284.9929
239991.812146
7030733.8426
4072403.30326
439855.658716
72994.4372408
1023412.09922
5803909.93079
680541.217289
460573.096252
582434.140008
50231.2506418
282954.376077
16410866.7149
164088.174054
415641.020551
37227883.571
3231214.98824
3030593.5165
3763109.42615
6993095.27517
36401390.1778
123232.4023
236579311.074
6567920.20008
33341400.8816
740050.637042
23113556.6918
22242042.1938
2119325858.97
786946.320196
735198776777
426684.892392
48252935.9771
288032686.942
6434931.7658
390894061.069
27634813.1816
28143698.0135
329660096.474
333103413.862
8295763.72525
5360953.3779
8011718.2748
714004809.422
34101389.058
34402552.5855
727471486.134
34210771.956
5.87913257415e+13
1153250.68025
4835777.09884
250120.056788
56233866.1179
27907337.3524
51505949182.2
422873.74231
104681914.575
27268807.4192
104646.793765
85601146.0952
107161.605056
441797.586459
1e-15
328219076.339
17426588660.6
488111.90418
1718858696.49
115845.567034
1216013301.16
153237.854743
380339.552018
43332822142.7
64440313.524
42565346187.9
174793.555631
499095370.853
177235.89474
263362.720649
363521151.638
78921633.0256
3978985972.72
208072.345823
3741222907.07
319410.240385
8025810111.21
343876.766062
20816753.6998
4115588772.41
319316.872243
63473513.9467
4317333.16737
3180616.68281
458254.699617
22985155.5177
746776.427691
402413.534102
347749507.6
376005.574813
4871719.21102
24939705.0017
349313896.041
10666283.7666
452995.937486
336150370.504
329208.447687
33259515.5402
602759.230502
28765988.3391
376670693.992
345572.174901
1106642416.76
389228.841806
489633079.032
364949.598963
1159640930.83
123878303.53
139665.438378
741599.615175
1835710.52087
176962.440289
20224933.6502
569392.690506
173520.031119
1.15401349641e+20
2.58836594228e+14
1.48889634714e+17
2.21316912292e+15
8.14524118556e+12
13036723213.5
4.5116764035e+14
405180.462547
4312326928.31
1.42454461317e+16
177302733504
1.10712656097e+19
4.72254884345e+16
108380131268
394856.846681
1.42981531205e+16
4.777238945e+17
2.10745507791e+14
33002881.0996
763243.96656
32612368.3759
94800714.1619
5500866.74514
282618855.274
6793490.55752
644309914.581
422804.882522
422819.065929
644321520.141
6669293571.6
7253474.21286
416880.741368
38837533692
641974557101
1838255240.09
416902.894104
61584601771.2
61587978191.1
397742.005567
5.4338826179e+12
81939195884.4
5.6644468749e+13
48268306960.5
808072377.715
2453045158.67
20977462.9572
825469842.538
1703570724.94
216599219.478
8618048555.19
273572680110
119155934428
2.41267319214e+12
26966107338.1
2.79658684752e+12
10244312664.6
89363665416.1
1.02975105722e+13
422815.063169
3.99517534013e+13
422835.584365
4.82088885391e+12
4.87503446351e+14
422826.135972
528831996370
422809.890007
422821.561253
9778518323.21
50768624581.7
50772100288.6
422820.237121
3.17189084042e+13
1.42971049627e+14
416907.782653
422831.849861
5.60258967901e+15
1.70346380098e+13
422830.788743
468223.614649
422922.008147
441963.442646
441975.316397
483132.828035
463263.703313
425210.755432
443627.228109
463209.382092
443536.456034
562051.349738
46871028.1629
636998.792903
17259660257.1
6818761628.85
13021605.4471
58044033672.7
83763170.0755
483133.508758
441010.323409
574036.831944
468213.182168
443535.151442
1159967.09522
404963.082771
422718.596935
422800.382884
404977.904308
286129092.065
483127.021002
2713701.77536
1116439.9687
17052062.3909
11064902.9729
1173657.79878
404934.535007
424801.705436
441954.186718
391699.508138
90941469.1158
50750882.1307
189920448.53
1822020763.3
468234.723614
422804.470011
456171.267731
441976.013275
563133.485234
483149.694434
1147867.26286
562532.193021
2.03499971557e+12
8447312308.76
187032480607
2.63490471299e+16
3640009265.37
1.2202305102e+14
2.47849816543e+12
483139.433292
483146.757006
184734214.081
122127910.444
388201298.709
21964444542.3
194837987393
38274159938.8
85412216.226
2.52765204387e+15
1825275529.17
1.17089539532e+13
237427688873
5954087.38429
52674740.9885
3661517.58015
56672633.7351
422788.40528
422802.63805
441966.16398
422797.907266
422775.223593
422771.769623
441951.460086
468223.813353
715037.618513
1296580.77367
1009372.69543
8828324.94458
422825.455747
422815.50445
422813.786339
422826.535266
422832.19022
422940.8842
422820.043534
417139.991311
422836.31671
394767.818616
417006.278126
408292.37212
24677.798508
422773.047241
26015.2557569
456321.517672
24679.1892072
27062.7833864
422774.139668
24679.885759
422794.965931
24679.2455855
441961.434635
24680.4687009
26004.0431562
422784.979697
1.02148416165e+12
1.01347242153e+12
468328.112662
468215.17393
1.02132953076e+12
1.02142396259e+12
441946.573037
408151.236473
422812.539889
422806.076434
416898.713457
5.22130784633e+13
563143.39086
28005.9479884
482870.071786
5.12917745077e+12
4.96344368449e+12
1147915.13227
1.38844342154e+15
146787.576746
562843.865029
397879.862114
1.35980288734e+14
1188927.42628
561985908.594
416803.35329
394651.310785
397474.357452
1159933.26173
4845206.23851
441970.207367
467681.4343
456163.325138
4871388212.8
470059.054029
468222.542646
55118743.8881
108584.308704
1187897.61156
483131.831458
150996.212707
29137.7985229
561945.703285
3336803.24699
329962734.479
236030.368165
410822.638789
169194.3352
70710.4583631
273816.59491
88352.1193596
19587736.0633
92941676.9796
358958.923929
1725040.68803
70942832.0429
15804883.7643
3576463.82889
648959.773239
3473219.66235
4347020.1611
29889.4024814
2425832.50377
1032018.87584
1127119.78635
404883.462375
102349.149625
220664.412495
171147.651502
138241.019895
88996.3282155
92914.1476857
99720.5289161
96077.5525323
112029.866714
93442.2764513
329734.199049
85000.5028738
72295.8371882
70249.3548298
146907.307818
79529.1382844
7923758.37156
4509247.01633
2609041.8264
4241716.31481
6108786.34462
1563836.39975
61673913.6781
77982.9943482
90717.3765063
84302.9561265
187325.49291
74803.1921282
102586.689575
78143.5597003
1986277.89617
23786307.0719
54186023.2833
1347880.75604
201583.636172
283.598500727
313504.758666
95525.2040741
109898.910914
96893.0472355
129230.725637
217865318.853
29540163.9839
428609.588141
87131.5313542
105318.142962
96631.0185419
110316.547293
92551.8996102
101721.523304
103870.088598
163689.119533
167492.17242
205761.186136
65309.130441
109251.696406
49419.0688276
59128.709679
143591.357344
134307.407127
3573033.58601
112205.100959
1602903.31561
130783.192066
3032822.54668
16647138907.5
163496630498
377872644024
1202041685.1
4.20378163745e+12
1.32715466322e+12
1718776655.8
4920188.32308
358253355.435
188229995.009
1398711600.96
62006522.1097
9029964.64449
30311353.9022
22835758.9977
12705351.6208
42437103.2532
397804.081913
150167.091113
234379.524205
5395799.80347
4514058.05828
1890240.89763
5918385.91462
422756.980534
422758.361657
422764.125941
474226535.95
2183024509.54
246963787.553
4542085416.35
54374484.9537
1487733172.7
194534277.576
101394012239
2.28736959129e+13
454090091.39
1.88408828395e+12
223398749.786
3161315306.65
487226892.278
40061928.0182
2693708674.67
2.2639484234e+14
35621045.1178
251235248370
568614.664766
756089.081184
72588149644.9
30002903210.6
2.9453807346e+12
771383.092533
87639913.1893
12613169.236
3700500788.85
18043595.5362
74193073.5282
7825934.24194
9635268.51355
320467689.3
378589.033507
391418.324943
361573.127371
2284071123.06
503919080.78
393052.529874
3320392.52797
405199982.939
473959735.954
439754651.858
41025938.2254
38799663.3029
33659367.9116
483224.34046
483234.071809
563123.885729
483149.031786
1.51420069641e+13
1.88475000338e+13
9.72150841926e+14
3.42452474144e+14
44653744037.3
1739239227.6
235657589.318
635392110.334
19249289362.7
6510348839.54
4569209272.23
456117.669127
441910.690855
468174.961832
422745.492594
426059903340
397139408432
7.98046694195e+13
67684862018.5
422777.700676
422782.508353
422806.188047
397776.937498
416904.016724
416895.721157
416901.420239
416903.335662
422805.713262
1072065913.6
87744381.5168
244768147.264
1337277213.29
422753.457492
422741.312795
422744.470091
422749.531285
441922.895203
561987.748553
468182.36111
73797418.1075
8822920915.73
72633835387.3
4153200372.87
563151.90544
1160888.16758
7134802.13634
1147982.14435
397792.805706
18208116.2749
397713.248384
1460212.18485
2689960.00596
15509919.7167
10655351.92
994051.693058
82411967.6187
26277337.1402
4482762.15357
255325450.498
1687582.90064
148261215.036
23053005.8782
161315158802
483148.48719
483165.651664
483182.513014
557700.917924
576772.014942
849733.44981
3640698.98304
11285713.0385
20867868.1641
161661.027835
9182545.52682
645006541.843
5964058.43582
5892639.23521
1105099.30608
469436.667498
544922.331619
40732609.6027
330855639.425
61906251.228
797905.016859
812611.226072
653119.671033
152890.440039
4285561.49239
1360287.34842
219230.683088
247794.157208
133901.857033
1032829.92177
941208758.21
209806932.32
443679.038991
546393.469169
3662541.65115
94286460.2036
3914233.54044
1853736.63102
11584343.9482
40919922.8489
113354979.841
33182752459.7
6476412025.28
50598107.3563
609666418.905
512743873609
1.17800292949e+16
53809446570.8
37331977.6018
3759491913.96
15766530.2865
2034463984.93
8.98432307364e+17
2473900.73763
42944315805.7
103120715.422
1113501073.43
91829275.7511
65278771239
3329761009.52
16022081653.3
1357673456.72
1.47283910003e+12
1.11627063409e+12
5.13580064186e+14
86398015421.9
4721657784.61
2347104383.18
1.06437786599e+15
48337958.3318
455652449.908
44603972.5343
6126600389.64
582515407.752
617552238.847
5303736.88212
140877763940
13414572822.3
4.99504318754e+13
49157880.5302
808968756.567
403994731.031
134298556.459
416877.8725
408138.920095
394858.599868
12613006.1343
14527880.6234
20356151.8087
22539874.7622
75231.3044009
132220.116539
1116184.29723
144887.727367
462959.267105
102721.509524
5027101.4151
4870489.57827
422764.824051
416854.1387
422773.601087
363952809.464
883654369.467
364288832.912
202343741.862
422764.309252
422771.601316
6131132.89804
4654282.8053
397748.360433
416853.013249
8269156.19031
8169672.07985
456183.664929
1199419.47782
403003.389276
277957581.114
4.42709327845e+12
131422.847467
102199.017792
422759.154297
403009.900825
7.24252129654e+13
138077.004787
259187.533495
235956.205759
224079.505203
381842.876619
85498486886
719150186.718
5687399671.21
7482915840.44
840296.496531
297908.33263
233948.503169
314206.569764
373023.742296
192443.920779
461561.390174
489983.558567
699330.036774
540269.23814
606033137519
4.27093190809e+18
2.15591587329e+16
1.62523383283e+17
1.97030776355e+15
9.33424126115e+13
2.4861586212e+15
787844.052873
535063.75532
616321.257818
710172.248044
889142.005915
617531.378518
1079395.23245
8339224.50059
3701587.50121
240490801.347
4097582.10153
79381563.0228
1.78639538522e+12
161237842489
1016616105.31
661583.119792
730643.500507
579181.016919
613602.02647
398092.171531
473362.912188
477324.202948
385609.423321
445307.17949
776760.805181
2946052.95744
418797.506016
378822.513395
584529.203028
368912.527414
758781.014829
926250.146444
591445.342209
1035279.71022
644753.326643
784285.721911
1017673.10746
12013592172.9
247234323.249
1226451611.34
4026704309.94
30689071209.6
2668607773.28
138632064158
9242478116.08
3165779303.13
11597725472.2
66195671.4955
409033588319
1117345990.59
1005976.14335
325815.218922
299804.144275
359207.5415
2927879.48536
1560211053.26
651399410.668
1345262371.56
2112578638.95
53928520.1863
10166315023.1
176042930.313
505438.362897
333060.384681
415235.780313
2612405.32719
2874981.46543
1185748.73903
669781.219382
964747.56302
379722.073106
471013.041141
2744437.80965
800822.333611
764716.864708
3055401.7906
807660.47221
1140650.0215
593945.551159
526043.052572
442908.980202
753840.152385
839065.030778
753978.085642
1027366.19643
683563.675843
774120.929491
532053.313427
832145.957857
1438783185.44
331918054.533
322190140.636
16884343.1769
7419758274.9
190565492.187
25238762.8014
9501320599.79
379358135.954
4961018646.99
4200734469.54
8.92439107411e+12
732001575.131
465669127.743
2919108.27341
2458943.68802
482358.614058
382506.416257
391570.177216
410533.555772
660081.676192
577933.694346
919081.208668
932699.62159
2436756.82522
1012420.17856
1141502.595
32044004.0612
406863385.73
1290960529.9
232227592.27
211624.843278
119377815.457
89028036.9841
239513258.159
14094225.2896
192945.885803
310553.211486
36222965.0183
238532.146865
1292658.13872
460641.362488
173383.432444
282396.741022
150767.786028
392149.655242
2545884.75018
2594812.89394
219463.971518
710668.337245
402275.392973
253679.967878
37716220.0666
274011.563971
218239.462956
2150253.10423
2866023.97065
340840.06994
583290.937253
450600.991796
422753.85358
2873206.67753
296785.204876
335915.066145
375929.691768
303988.554758
276808.701116
350580.216846
344072.808345
288991.58484
294968.156783
318695.501588
31185291.6142
612168.954659
459304.932747
398911.191146
511706.533431
32011.3043675
348243.062187
507147595.143
22172665.3443
666300.628835
27243161.1818
563248.177867
341678.967234
487994.64602
2273154.71968
623237.826713
2934070.5666
346085.514042
2753806.96337
260254.170448
313271.373557
257401.925695
308178.375526
337267.802493
762602.178769
276791.561409
380762.074178
772670.52105
2677963.42266
988867.721719
323120.668192
321709.862004
450434.022563
512250.17012
388943.225832
2906510.96075
1048164.27095
2438095.73579
852825.906037
622020.595711
37744028.6413
39251043.9528
554422.96775
680867.891361
21140981.4377
17059140.1806
578983.902494
20869624.7137
1985520.41615
390987.279877
489804.339348
413074.501954
3628850.88402
316821.535656
347150.885356
340809.965626
279164.649449
404878.854608
325339.602706
2879554.65566
8437721.18874
506654115.083
28237673286.6
7030488456.02
19393350340.3
34621210.4527
45838300.5459
13097090.7012
7993458.36004
4081789.495
110073633.073
468301.830491
483244.847081
1160805.0756
1175436.44734
1175440.45355
483134.796163
456182.153616
483162.179821
456157.153892
55035090.2663
4692005725.61
1214642274.35
397780.391169
5662333.6053
7358234811.23
67583158.8292
437829062.06
23490652.6898
50818855.36
356289155.383
562551.980735
1146055.64901
563146.514875
563177.700775
1160868.01734
468203.853786
406177612.147
233024713.803
1023328873.07
2326680272.6
643271585.207
626906189.594
147939782.358
205870242.127
4698589.46774
111291673.527
39257765.8604
77374610.6997
488504972.168
4723285.26452
1146040.32447
562530.336572
1187876.6086
563106.554715
1147848.03468
1160832.81461
441921.475261
422764.198096
422758.245297
422754.092109
2998496817.7
180422171806
180439458570
394836.397564
51438075962.5
6136913580.39
7487149859.87
1160516.75113
468183.771936
468184.040178
563078.289608
441925.011295
9004467.32523
227467707.25
8329778.4432
7751258.63672
71194435.3056
18181553.2614
1908506.20723
408128.108701
1301709785.55
1554771520.08
36781580096.9
394852.926165
2338540906.91
44822828.4672
441996.949728
422786.643246
422767.325127
7.2045361479e+14
422761.553864
2.9935585868e+14
422770.505348
468275.520025
441983.550983
422775.924543
20873687240.3
416858.210522
19220427725.5
416851.78358
1.47179302749e+13
8.38370069422e+13
416838.861303
422764.97572
4.19901613946e+13
397745.045989
468285.917345
562573.366447
456210.083841
1147882.70834
1188878.44437
7732710.26529
78732528.5072
1000333087.22
36444044.3709
28821403.6194
1741801162.33
51527329.0766
422798.136452
422814.812515
422826.908787
422789.446382
422786.299185
422776.915738
422770.853226
422793.308183
422779.527563
456133.837869
441944.766914
422764.275313
422795.364303
422768.295352
422783.708166
1965319996.09
174101201.419
2219659534.63
38673454603.4
422815.627464
441954.856211
422792.144275
7451564740.84
460335989.894
1112699398.08
381601974.127
441932.057557
456139.026827
422772.145574
133589787919
4.41028303165e+13
1.89291603771e+12
9.45871289996e+12
422758.330727
417044.311342
422748.441531
408236.4097
422764.308825
422769.885983
422758.985542
416845.74646
416949.003799
1.53161035047e+13
394632.242713
397846.473854
422756.205753
441930.947125
456125.020548
4725494218.11
4928804051.41
433646249727
540711839399
1159892.15664
1187927.01922
561953.154648
23671805779.9
397412.995911
803463164.664
1.23741379912e+12
468190.467186
1144298.11543
483104.487705
253397101320
3.58757360124e+14
1.77413451422e+13
3.48675506288e+13
468215.047027
468211.688386
563124.571149
42070746.2251
2859174155.92
805517130.97
248678367.665
394863.415954
422782.956038
416870.757868
408145.706493
483115.346905
1188923.90595
1147853.67135
55299675.6476
5.68722788359e+12
1092434994.99
447548635.922
416930.342896
416848.000169
397734.646089
1392842173.45
5720832045.78
2485190620.89
1704670434.74
229815.984765
1119552.80669
1895313.07383
6254047.57817
1224661.54273
2448818.70286
1689191.24294
397640.446253
851599.947834
1713970.2654
16257633.9492
2191697.65673
17456799.459
2141680.70034
456176.031707
422955.090347
456208.389216
4806942.12336
213610093.295
25534343.5297
27257817.1522
483217.617112
440963.275185
483235.709099
13828526.1933
26439717.1827
110659.243458
143137469.314
417076.015346
425151.199073
456260.911673
153917.442875
477519.092863
2549976.61619
37699060.174
473621.608413
3368935.11892
961440.916874
413091.021542
1405884.03925
2331229.88461
1131286.54732
1426773.46702
10217791.4304
947404.565329
1215185254.82
86119.9457758
2213876.17335
323429.588902
237224.929898
280732.441693
177569.414632
26264.8572582
268981.429256
29638.4792043
62385.4396825
252336.633215
1263671.16702
74224.0370356
139526.390559
82608.3900252
439866.171919
67726.9291648
74459187.4624
16412033.2852
138724574.804
167336743.022
320768004.695
2121983.34618
1.32987427787e+18
2.2089883343e+15
43748180992.8
2.81628147496e+14
427950026844
243255476.402
22057610.9921
402666613.317
192896453.613
60089131.3509
23432343.298
2105942642.91
214477639.436
829743123683
8042943251.65
1021087183.68
36962278.5977
212108297.905
80814095555.4
31834774.7143
2041744.55215
8641989.31957
4847831.6543
7126839.21832
17554643.7435
25169869.8269
20837491.267
1918532.9061
3132573.77364
203932.729329
2211516.68529
97871.5039823
295325.571501
60424.0154097
170828288943
3906285727.67
658216466.921
90141805.5765
73398983.0131
573157.192451
264919103.421
169153107.286
29038493.3978
27500573.1775
2629348495.02
15036776693.5
457152421.408
36583436.4315
1262634067.4
30160742.7983
1453901729.44
3001367466.06
16257087094.4
1.44410540568e+12
15916804.1393
761806639379
1.54834791548e+13
27200564.1472
284248332.754
1.18361759708e+17
1900427637.19
3.26847438891e+17
1406940861.9
148293788.832
8613679306.65
1.51985400246e+16
259889700098
139581026896
11440366.9113
10161036.9413
1.3623074849e+12
40627552.5204
13035437169.5
156910212.83
183716782058
5.40877220014e+12
113172654.114
2261317319
635868516.367
35309323.1962
19667292322.6
30780791.5453
47114222.0199
112152895.096
327925338468
387071893.884
635836430.655
7143541.89303
6642784.10981
32640655.1546
266083671.966
146679110787
5423248446.42
10499918822.9
60963967.1529
45718278.6782
130874525.259
1584411441.99
155691400.033
159162119.291
204862951.679
468242.988901
483146.098316
280931884.853
2860967922.55
3574748.00278
101651181.717
483152.708527
2355100746.69
1.24817149199e+12
25406582716.5
120103453931
483156.548198
483181.143969
483152.430825
483143.533266
483138.576048
483133.849873
483208.070067
11866586.942
353217.265623
144689373.666
72503082639.2
8716932.30413
53150823.7153
1811600.37687
146764.792561
1788615.28609
1788720.70416
151116.993962
1788720.70416
34947.4645437
264136793261
59805194.5767
27404508.5828
416855.696729
422772.768212
416834.611975
397708.432246
1996307541.92
422776.089104
1996307983.72
1996432286.44
407849.783964
1996431245.09
422785.789298
47495120283.5
9506177256.98
94759212540.7
1.90152395822e+12
639087672.727
3.35924550574e+13
68748418.4325
1147882.71825
394842.291089
108770.906606
34985.8502888
1160786.24106
146793.875444
563081.842366
67041419356.4
4.46710110097e+12
52058603.8073
195472261334
17544008089.2
262472020.902
2.54441160429e+16
40801211111.6
1034474836.24
451252977.159
111486757.143
43882575.9731
148600013.122
594726626673
7983852576.83
20046333435.4
554882193.238
8828307290.05
3373454941.63
2.44069919308e+15
761401676.003
721244176.216
586068905.089
234511512.956
19564122611.9
1709812414.87
77873517.0651
635638979.446
28666513437.4
1337333674.7
82974686.8949
841945679.984
457641359.04
540921684.211
13451006489.2
4746793401.78
167944308.074
46169094.8187
83749045.6162
500285517.568
481272627.203
285569981.205
598666144.043
1798201804.14
177111597.907
189799620.752
673007372.67
234849654.23
467525640.64
550956.704886
3.56342846592e+13
5.89060289138e+13
2.09999646329e+16
174368.674383
321181.107085
1.22088456249e+15
648749.953382
34387532.7907
193528019.244
2.43460620081e+13
177126209.48
2.33569509197e+12
1.41550160522e+12
335258.671155
1.55937073854e+14
9.44985001495e+13
7.44670152892e+15
4.329322976e+14
23661.6254035
7.14368852984e+14
29960452.6885
12954661.2831
626798074.191
3.45207011405e+12
66235148.0621
207740456.282
57499910.5545
6289387.85305
14590740.5722
74673092.6956
417601274.736