/*--------------------------------*- C++ -*----------------------------------*\
| =========                 |                                                 |
| \\      /  F ield         | OpenFOAM: The Open Source CFD Toolbox           |
|  \\    /   O peration     | Version:  2406                                  |
|   \\  /    A nd           | Website:  www.openfoam.com                      |
|    \\/     M anipulation  |                                                 |
\*---------------------------------------------------------------------------*/
FoamFile
{
    version     2.0;
    format      ascii;
    arch        "LSB;label=32;scalar=64";
    class       volScalarField;
    location    "0.01";
    object      p;
}
// * * * * * * * * * * * * * * * * * * * * * * * * * * * * * * * * * * * * * //

dimensions      [0 2 -2 0 0 0 0];

internalField   nonuniform List<scalar> 
29768
(
-0.296221359616
0.416315732668
-0.294432425866
-0.293446557158
0.40072724044
0.409687111782
0.402360422221
0.411869521754
-0.292026778528
-0.247609622207
-0.302894880792
-0.246014154384
-0.312684874396
-0.0130224883093
-0.2464531889
-0.138610555633
-0.303684046878
-0.299057461239
-0.289384378425
-0.282933559431
-0.305126501573
-0.300354312464
-0.285984875782
-0.283144243884
-0.287348358281
-0.301146812285
-0.301921266794
-0.303406878772
-0.284546755747
-0.197536038615
-0.253550711734
-0.272666764691
-0.286010147452
-0.305241135809
-0.251992039572
-0.288057759638
-0.151712901208
-0.31231821363
-0.29039906828
-0.289506054923
-0.302032547603
-0.313712979839
-0.302844786814
-0.292227595035
-0.249240190106
-0.0306456396993
-0.149746622238
0.0169686665238
-0.269984386956
-0.249855722313
-0.28460683057
-0.305599244817
-0.27158136145
-0.124539921882
-0.254660023094
-0.228747514602
-0.285809006192
-0.299177544886
-0.297700523781
-0.299789774898
-0.298693862373
-0.300065480343
-0.295632966996
-0.286671221038
-0.301186944226
-0.289660073077
-0.289798597316
-0.283279477638
-0.284022791507
-0.290682250565
-0.279373247804
-0.285017699906
-0.286841867954
-0.293385753249
-0.270810854521
-0.268032644164
-0.27207424859
-0.292740489356
-0.290198690192
-0.268959931491
-0.282030920414
-0.281300654988
-0.273552896301
-0.279741004789
-0.271558354856
-0.270343540196
-0.308177087078
-0.279241873997
-0.302889503546
-0.309110383344
-0.272499766485
-0.300413979903
-0.305686134476
-0.298314127945
-0.308215576109
-0.296149622219
-0.297449186917
-0.293909241543
-0.292451788909
-0.299241173145
-0.290225443564
-0.306271231724
-0.29627584627
-0.287696599124
-0.279494269347
-0.28169193219
-0.286948361282
-0.286739107465
-0.274075116148
-0.277444034583
-0.287215449475
-0.272242135678
-0.280291339045
-0.271844076795
-0.273541186595
-0.280823758539
-0.275275982167
-0.295378279195
-0.296559464294
-0.29219295255
-0.295455920948
-0.297351368441
-0.30201028612
-0.294566341275
-0.30308719502
-0.300358941695
-0.301140694789
-0.298730389095
-0.295513506552
-0.294540032564
-0.299207959
-0.29581471645
-0.296788025964
-0.301019889031
-0.29385493755
-0.302790788217
-0.292670407306
-0.30177883904
-0.29824736367
-0.281652316616
-0.207835541348
-0.299136017106
-0.28736190578
-0.385368403353
-0.294646157406
-0.28014113492
-0.369351667521
-0.291971926963
-0.269424458378
-0.294578076638
-0.301912789196
-0.305340821455
-0.31169530996
-0.306728484038
-0.306735974983
-0.302049558391
-0.298423063613
-0.306021188436
-0.29858324119
-0.302432947326
-0.300593825815
-0.302772675512
-0.303823922927
-0.299363289269
-0.299146584071
-0.306828014702
-0.299815367153
-0.311849880891
-0.301585045447
-0.289727516142
-0.30725000955
-0.311691595372
-0.296880038943
-0.30235843819
-0.29688130396
-0.298407225659
-0.296657027796
0.363508065462
-0.273693308398
-0.275169188613
0.392004430677
0.364903539429
-0.272993598243
-0.275608135566
0.392794447272
-0.279706092718
-0.271349234282
0.400251055766
0.410153335392
0.400737138015
0.196114738635
0.19725907625
0.0315411561112
0.1986074175
0.0456581591365
0.341843297823
-0.0284039379518
0.0248691833999
-0.044687046633
0.179588405079
0.122121882855
0.157875706623
0.192638124796
0.124638163796
0.193650411635
0.131076507691
0.206879893255
0.303901155416
0.355400293733
0.309938417484
0.20907767719
0.306583934395
0.359313754226
0.30027722145
0.120491671029
-0.0204851370548
0.198584161995
0.123458412784
0.115912544303
0.151992950353
-0.087818989235
-0.0755933074387
-0.166447590424
0.11242812043
0.046659178992
0.0922177488525
-0.0654229851058
-0.127982620507
0.375985825228
-0.263819145319
0.355568138616
0.335618936738
-0.273784490899
0.194026631299
0.166677425297
0.21853584326
0.242038450855
-0.177297595863
0.108745051332
0.0111813074252
-0.135000721005
-0.0573649515119
0.049553395309
0.0978158227905
-0.123676680768
0.24417174774
0.290462716789
0.335514725304
0.342805277708
0.336458009915
0.245100233173
0.281396800863
0.282951426185
0.35023433354
0.343654997961
0.0480411114957
0.0776711584004
0.0915004130388
0.0986502865763
0.159460738099
0.119048451314
0.256430251417
0.271027257469
-0.28842263028
-0.289964440296
-0.282009116565
0.303553334312
0.331213390086
-0.268657201317
0.354432582515
0.345814682673
-0.273134354961
0.334721169944
-0.277390171292
-0.27166781103
-0.280216313822
-0.277821091858
0.306927795106
0.332681786784
0.330678387615
-0.279093787232
0.203934386277
0.161945999527
0.199765340623
0.257129918623
0.251132500418
0.254834331822
0.298474296478
0.263718816576
0.253656122353
0.273185978206
-0.294362095794
0.301205556164
0.265292206348
0.342422759437
-0.273764436834
-0.277152108583
-0.268623018683
-0.282515542332
0.334087570733
-0.277326842202
0.0911706438989
0.031559169927
-0.287199918913
0.109949336875
0.158767548768
-0.297542087624
0.155952301046
0.120249742759
0.103578475217
-0.299050527328
0.15780299924
-0.293625802319
0.0983243816258
0.0476695836884
0.0380642688373
0.108820203329
0.0902019360719
0.0511015368627
0.0843378730906
0.0173078372351
0.0925943870459
0.0544090840715
0.079863984734
0.122337688691
0.161721595859
0.162065006219
0.122706187072
0.0366947184027
0.127286854652
0.103478962599
0.152237547954
0.120792080728
0.163199940626
0.0864204098088
0.107660519737
0.0102210125865
0.051172503742
0.110632955614
0.0464048881837
0.0624635518012
-0.0253132325834
0.021972432423
-0.0143550343011
-0.164376453534
-0.211360984198
0.0222243397548
-0.0214760765015
-0.0259219333076
-0.0106100293861
-0.180192373054
0.00103209876011
-0.0344266046914
-0.168389208149
0.0161887026456
0.376501064841
0.378477349086
0.380878951235
0.384079882003
0.387625125091
-0.278248134214
-0.281061509462
0.103755427588
0.130785460613
0.405222954212
-0.288181292839
-0.301931325473
-0.297016020902
-0.300180310673
0.408446551668
-0.295078472534
-0.290608415604
-0.284072068211
-0.29195980903
0.410678358024
-0.294848384456
-0.281200053047
0.406248170352
0.405752696538
0.403216857146
0.404551910305
0.400538635544
0.41161828832
0.415864337395
0.412215623758
0.41601144309
0.41210223154
0.407778673752
0.413227777021
0.408947200298
0.411369250254
0.415648549316
0.406047333069
0.40895679622
0.413952318265
0.408439258115
0.408738281153
0.411209544723
0.407001628961
0.40586400074
0.410661262933
0.403679756424
0.406609040056
0.401502293252
0.404769649831
-0.283569878913
0.400144852065
-0.2747893853
0.403683812672
-0.289704673005
0.406112351402
-0.28557075307
-0.279799016776
0.400996340473
-0.276364576628
-0.285612866128
-0.281663157431
-0.273959788178
-0.27485128419
-0.24903595107
-0.24072088992
-0.221999550472
-0.171490530762
-0.226933308098
-0.230675705503
-0.183702832219
-0.295554965648
-0.29481207297
-0.295005468558
-0.294504085024
-0.302783319703
-0.305461662864
-0.300409829222
-0.302825588042
-0.303092300891
-0.304852102437
-0.302616200393
-0.30055327823
-0.302352586414
-0.302553267986
-0.301831561224
-0.301087698116
-0.301824371928
-0.302194775006
-0.316202417675
-0.166788792678
-0.315611221093
-0.320496402777
-0.310750712093
-0.254032592406
-0.272831169852
-0.241262356908
-0.310932004504
-0.213811461166
-0.247653154296
-0.26818247841
-0.417145768344
-0.302133360795
-0.304545315293
-0.3126495701
-0.301442543689
-0.301659088388
-0.301693375472
-0.312908274192
-0.274362673674
-0.262313498509
-0.242828486113
-0.264973467607
-0.240163932604
-0.278772442487
-0.335124260368
-0.272252770822
-0.284491826838
-0.27372894614
-0.28694639346
-0.272357095188
-0.271639069336
-0.284275629881
-0.309612339016
-0.0852994331667
-0.31362314487
-0.313772566793
-0.310032944384
-0.114631511035
-0.305369969023
-0.303522715279
-0.303410307371
-0.309987631978
-0.311394968658
-0.310657850447
-0.310428880231
-0.293876771814
-0.300649509583
-0.29983948152
-0.308874124439
-0.311062577954
-0.309037253228
-0.309300747099
-0.306055954073
-0.305993198648
-0.301670998224
-0.302994123422
-0.306927932078
-0.304992876793
-0.302993915335
-0.310999710591
-0.290040249955
-0.312573172346
-0.30813698494
-0.310938731286
-0.303109084261
-0.30089892386
-0.302381033515
-0.300095442258
-0.302469009112
-0.302444410542
-0.298751463512
0.35553931395
-0.2712635204
-0.267649004962
0.373820547225
-0.292920121445
-0.28437761184
-0.284577931839
-0.285251651947
-0.29820920149
-0.356245270206
-0.287346291809
-0.284950536751
-0.28237551275
-0.280223569989
-0.319010644709
-0.239878807793
-0.298882868773
-0.285145491687
-0.298888905843
-0.294951062775
-0.297909704574
-0.306412964198
-0.31090132707
-0.310561937688
-0.303539661343
-0.294422905751
-0.296749404779
-0.30325481976
-0.297818980345
-0.293723644961
-0.280458634985
-0.297765287251
-0.295837361462
-0.291331006613
-0.283153593877
-0.285902759018
-0.305265482979
-0.300763919684
-0.282608443525
-0.2930189472
-0.296451725137
-0.290016035743
-0.289089213721
-0.272879361767
-0.288715457887
-0.288802785069
-0.277982683154
-0.282791726047
-0.286035591349
-0.291523761488
-0.285778131788
-0.29312438333
-0.297432682869
-0.285075411944
-0.294341017078
-0.289985368593
-0.295634189871
-0.283985839242
-0.285293923057
-0.284966571078
-0.283306826012
-0.274562872672
-0.281269064698
-0.283378291848
-0.288663023999
-0.281964239878
-0.287580252734
-0.291814487812
-0.279959281459
-0.290348699329
-0.286744276545
-0.268371425784
-0.282259022264
-0.282386942285
-0.291607503391
-0.302083048501
-0.283074051634
-0.297718916415
-0.269331742326
-0.282249142741
-0.268092597479
-0.280317421504
-0.292318442962
-0.286795321539
-0.284606870141
-0.282824974026
-0.277238670081
-0.281396148537
-0.279277695882
-0.271032339228
-0.276399088379
-0.276481381743
-0.290576493622
-0.289774354206
-0.281535580804
-0.286200928516
-0.291658426444
-0.286580364303
-0.278979774165
-0.275310926686
-0.276610162755
-0.276962567348
-0.278997054528
-0.277722505286
-0.27364763571
-0.277592065249
-0.272630477826
-0.274556675774
-0.27040155882
-0.274564324721
-0.277861276112
-0.272732646804
-0.312716745783
-0.271655420306
-0.305530126921
-0.307234810024
-0.288739360793
-0.311297723167
-0.299017871866
-0.303435569683
-0.299611756654
-0.310929214181
-0.316073990363
-0.310025839613
-0.315489492163
-0.302472326764
-0.312356677656
-0.299824618586
-0.307508775308
-0.275770544416
-0.304384403738
-0.308774652313
-0.303499611512
-0.320203484642
-0.287084680059
-0.284921737581
-0.312936551749
-0.28946196617
-0.301167722024
-0.295056858498
-0.278404042933
-0.302890464703
-0.304834719396
-0.285832426933
-0.302109308404
-0.285034864381
-0.291925073564
-0.300228390189
-0.302162791774
-0.289044057293
-0.298878680912
-0.289874614028
-0.291429050638
-0.292696696719
-0.290729797556
-0.279729877615
-0.288687980472
-0.289081163522
-0.28524955793
-0.293142686142
-0.293369572962
-0.294887786038
-0.285446272559
-0.303391385806
-0.2993915681
-0.290611971741
-0.295695308338
-0.296479969288
-0.293486154062
-0.284324813744
-0.294116136194
-0.284187224193
-0.295921366145
-0.29591788521
-0.303848219499
-0.289458905186
-0.291689065884
-0.294929587903
-0.288450576295
-0.295972576825
-0.290299966149
-0.283568917776
-0.280898129929
-0.270027712304
-0.286490419797
-0.287732420265
-0.269342557868
-0.296287315121
-0.294371653215
-0.296399899037
-0.295351436306
-0.295677480612
-0.296000598549
-0.297067825005
-0.298268471655
-0.295333238717
-0.297330871663
-0.295902822074
-0.29669449912
-0.297036575643
-0.295972052085
-0.298651463477
-0.296656248923
-0.298029553094
-0.295954753991
-0.300512809503
-0.294696826094
-0.30119022375
-0.296016140184
-0.30186419016
-0.299477623421
-0.296241398628
-0.302447421851
-0.302946167476
-0.303111074588
-0.304178335127
-0.302656362412
-0.304221609543
-0.302607707499
-0.301142732668
-0.299468520114
-0.29559900494
-0.302699443964
-0.298461796162
-0.302319436557
-0.301400201696
-0.302933776238
-0.295318373884
-0.296421041263
-0.284690691189
-0.298407475988
-0.292482916
-0.300186953275
-0.29515400659
-0.301076901626
-0.298487687678
-0.293252601199
-0.298302633062
-0.298110287565
-0.295877365213
-0.295349162348
-0.297133494459
-0.298532417277
-0.294468044985
-0.300574161705
-0.302970748435
-0.298950447524
-0.300972391298
-0.301055104097
-0.29870675617
-0.3016769308
-0.301618329659
-0.302788242045
-0.302561725603
-0.302900970288
-0.301426417555
-0.302982314912
-0.302358162712
-0.301669899258
-0.299020409431
-0.30117793921
-0.302475811528
-0.29968374447
-0.301322380294
-0.302052229811
-0.310818291924
-0.305747860134
-0.306435154412
-0.307725774155
-0.318893696686
-0.18028862565
-0.362830274195
-0.24290375948
-0.333430213938
-0.351175472237
-0.215841576902
-0.2967214811
-0.300828365062
-0.29731536407
-0.296944282485
-0.298115088621
-0.295061416079
-0.299054665801
-0.312415775159
-0.326379210053
-0.280850762752
-0.304550519731
-0.339819779984
-0.313318689097
-0.299336819413
-0.303631980787
-0.303932594747
-0.300999323776
-0.299703683246
-0.316504073115
-0.304976854774
-0.373478072063
-0.299108470801
-0.306358153376
-0.318204016454
-0.295327901219
-0.310377227801
-0.299480145553
-0.300142248579
-0.305599979437
-0.305140735203
-0.305722523757
-0.304850828704
-0.30854093338
-0.309561166863
-0.309149026707
-0.309198673637
-0.308477632305
-0.0548290440527
-0.314092193738
-0.0405995989396
-0.304992578504
-0.303694450693
-0.303240601394
-0.302300150554
-0.304567273111
-0.303232771515
-0.304332077489
-0.308269615907
-0.307545710819
-0.305974125093
-0.302514324467
-0.305779436819
-0.302584124237
-0.305385414361
-0.30580641492
-0.305053761087
-0.304603959881
-0.305551424178
-0.305344063315
-0.304813709367
-0.305204575409
-0.306590577475
-0.305640251499
-0.307435881446
-0.309644914832
-0.309450779992
-0.308548499496
-0.30991877471
-0.309504424845
-0.310074854046
-0.308228395665
-0.308085691798
-0.304644796566
-0.311148711733
-0.303578334505
-0.309167096199
-0.308665243905
-0.309328990235
-0.309528078694
-0.309289010799
-0.307422786565
-0.306216268433
-0.308012432058
-0.306204399856
-0.308211706012
-0.307841955054
-0.30874884013
-0.30763493082
-0.30613583856
-0.30185697408
-0.307815521294
-0.302499823817
-0.307207484576
-0.306948298859
-0.302982358527
-0.305094825844
-0.303029760234
-0.303838030936
-0.301751878332
-0.304064697221
-0.304725061443
-0.302966943178
-0.304974701306
-0.305338778414
-0.300422782518
-0.300296689761
-0.305394995664
-0.304566225117
-0.301575206706
-0.310891531529
-0.309545215831
-0.310502785262
-0.309455848632
-0.307623268754
-0.2986436521
-0.308103936916
-0.301018257396
-0.308512557316
-0.307172280775
-0.298181473037
-0.306823303608
-0.305101229989
-0.298061719531
-0.308977408856
-0.306649022928
-0.29209917317
-0.301258134118
-0.304776767284
-0.302491232923
-0.304807054714
-0.287069404446
-0.303216634912
-0.301394484797
-0.302756425597
-0.301657358984
-0.302876281433
-0.30357321678
-0.300151803236
-0.303373696643
-0.304635619748
-0.291089233588
-0.299141536222
-0.30350774029
-0.304064339637
-0.29651195936
-0.270425782149
0.354326710866
-0.270482233165
-0.270087066786
-0.265420090556
0.379970130592
-0.271858493619
0.378567535064
-0.269109592463
-0.267753199068
-0.269655298092
-0.267043259825
-0.275471123706
-0.272741869555
-0.2711988128
-0.265218776864
-0.270952877971
-0.271918893543
-0.27020156745
-0.26784709884
-0.266381441808
-0.267288506318
-0.265548642271
0.387272365098
-0.269063571896
0.390436016516
-0.265621890323
0.383905223217
-0.270832922684
0.389253843915
-0.267327025266
-0.268151534253
0.380646859699
-0.269497520528
-0.271748294103
-0.269900376671
0.381506021463
-0.272754138136
0.383959777114
-0.271456058565
-0.275277423262
-0.269328850517
-0.27139122446
-0.275725130805
-0.269532788328
-0.277238291495
-0.269053497484
0.383909335843
-0.271153506812
0.397789999441
-0.26701529428
0.38377755092
-0.273311401778
-0.275168696152
-0.27245283774
-0.275568688819
-0.272187158224
-0.268484129976
-0.269402132367
-0.267614824842
0.397591357889
-0.272553902365
0.392162600697
-0.266424473278
-0.274767698783
-0.268041748202
-0.26512061757
-0.276910763826
0.397663305296
-0.273611216238
0.395522223315
-0.270259645448
0.390612324195
-0.268050945733
0.404913208097
0.395817864908
0.400582754968
0.402934028328
0.4088504952
0.393930172385
0.399584617698
0.402102474288
0.39464811205
0.393836385108
0.400436588785
0.396384872828
0.395128495402
0.389223199477
0.14516699512
0.196687744176
0.165819225751
0.175184042855
0.164163898179
0.173710740298
0.148389106348
0.360708125819
0.354338585961
0.341118966048
0.0365399717678
-0.00844712587114
-0.00151907955822
-0.155250454928
-0.133305727259
-0.0735515846402
-0.0825508636965
0.00882792305334
-0.0286384031096
-0.0145619853934
0.00763161593362
-0.017940430622
-0.0177334781306
0.0208625185075
0.139239508422
0.15493914614
0.134336126802
0.127928995922
0.150374472279
0.145434882195
0.134846063511
0.236817154409
0.237394035716
0.193455784559
0.214197813279
0.213385456528
0.176402458983
0.172029014891
0.287960195997
0.2904119216
0.308557970638
0.307823087038
0.292145002519
0.29275167095
0.31495246723
0.356196406231
0.364501312655
0.366128001575
0.357195112652
0.355895273168
0.356237648223
0.359599200628
0.317199833325
0.313529733694
0.306349265273
0.319789735519
0.317062967399
0.308809397586
0.312652009075
0.36114599056
0.361577676732
0.362820631798
0.358289685148
0.357810035096
0.357670049289
0.356234288014
0.335203339236
0.296205379243
0.304805003665
0.317680644915
0.331725220485
0.292013567907
0.319993855649
-0.306862228591
-0.302926025423
-0.0106558533878
-0.0260651946758
0.142671866606
0.196038572474
0.161860527967
0.174193577298
0.118913746293
0.1499117437
0.117815178156
0.0949002785524
0.147237506565
0.0898440281733
0.123245298408
0.140136077367
0.157996551845
0.149967004723
0.14827769479
0.11359300665
0.11350702192
0.144065346021
0.0829680907668
-0.301196803276
-0.300641405402
0.0449872061756
0.000681630670803
0.00715320905494
0.0413778729064
0.0234711826669
-0.00232758654605
0.0363728016536
0.0432427033608
-0.009122691485
0.0306652336969
0.00697723250389
0.151676507017
0.16389253472
0.164642580201
0.151613309516
0.135437731269
0.145915133646
0.134057945341
0.13690482869
0.148302872582
0.134231930248
0.150928845303
-0.0298755026267
-0.0511108361857
0.0212125966063
-0.0143230961215
0.0357382956108
0.00500518706839
-0.0458297532436
-0.0950902689967
-0.114325725096
-0.0661502409781
-0.0367464289361
-0.0650144650052
-0.0216860408247
-0.0681237720657
-0.238823936537
-0.17223748107
-0.244815683334
-0.0524180220901
-0.0624953028087
-0.0613677904909
-0.0364077695407
-0.088372041605
-0.0662931856179
-0.0426731668955
-0.0241750196975
-0.0545680485796
-0.010605627265
-0.153063846381
-0.143010511212
-0.225938484986
-0.0437719127023
-0.0492400549293
-0.0563224398707
-0.0333864829084
-0.281770815328
0.336894634838
0.342511923093
0.356807958655
0.347440920755
0.347800388246
-0.269431857749
0.355329121394
0.347577033408
0.182446340571
0.182991262612
0.193475772125
0.233618299721
0.229719882874
0.23593029962
-0.448962828641
0.0122949796061
-0.0845543693434
-0.189845112618
-0.300288245501
0.0313594261927
0.0183955902806
-0.0518947926088
-0.0704634802671
-0.171103092009
0.0274678854893
-0.0187112488188
0.245593840396
0.281290642695
0.279364521295
0.232039974397
0.231304090393
0.26533035816
0.265363481718
0.317912656983
0.28767331639
0.320591303852
0.304868869548
0.281957029359
0.311156527712
0.282750990031
0.365551010365
0.346857838131
0.36177250726
0.360729503448
0.358590141061
0.349623438853
0.343596815535
0.322542251742
0.317859727874
0.340467429645
0.317202710573
0.315219093856
0.33557158188
0.33176867284
0.365286274967
0.346393851095
0.369053959809
0.361934154476
0.364102077246
0.348704656239
0.35101114335
0.322139216695
0.325233290189
0.340189615678
0.322592577706
0.322789856795
0.33780451759
0.338951093436
0.0469236285813
0.0682300972481
0.0344386091933
0.0363686949801
0.0791806529601
0.0657621959556
0.0502398428703
-0.0200156138336
0.00314621845995
0.0130284277982
-0.0106251322682
0.0409155087524
0.0228437705034
0.0329039332057
0.0544678864579
0.121925918573
0.0881720402034
0.114644478517
0.111606543085
0.0964886906289
0.084663922853
0.120864726962
0.150566168776
0.127696411719
0.122093565635
0.141719763527
0.074235538714
0.103811117344
0.103950545019
0.0737656716928
-0.300038562665
-0.325968514569
-0.311805513382
0.162988949667
0.170076254571
0.172028747318
0.178094085497
-0.300904223724
-0.307664026243
0.171545686216
0.183625492368
-0.281312169618
-0.293192515415
0.273906508826
0.234562888027
0.265551598865
0.256070070567
0.249512183305
0.253017662187
-0.278140800474
-0.293814565244
0.287998767747
0.229048610545
0.229769893605
0.267193880171
-0.29417427498
-0.285383983215
0.270519866643
0.280831797319
0.286374729584
0.28115805498
0.273433004513
0.278353639185
0.285565546494
0.279477070372
0.281966872401
-0.277586345766
-0.286038294008
-0.28798313504
0.284896492541
0.306718488331
0.292110912109
0.312844435976
0.294953758082
0.30145314611
0.288854639422
0.304417079955
0.274758128875
0.271436868912
0.279960577361
0.279782084057
-0.299342184667
-0.291775533228
-0.284933908734
0.283533510833
0.279817610465
0.282278182603
0.279198600639
-0.284911591006
-0.286537392804
0.289697499386
0.298326692366
0.33035396296
0.325294999685
0.311096692022
0.31447043132
-0.278490966941
-0.277476281121
-0.275626655043
0.333325094047
0.337028075585
0.344638632016
0.342634392711
0.355564531264
0.359043905828
0.357094195026
0.350885578475
0.345574812647
0.34198096461
0.349409466264
0.330106588309
0.344438822722
0.336686947431
0.35045611984
0.340035812156
0.345370951116
0.352898154857
-0.275113710557
-0.272701520085
-0.27414692669
0.343685572873
0.334051005024
0.337629926733
0.3427852985
0.338671827921
0.344514249748
0.342069239866
0.343614808655
-0.275750026106
-0.27495233247
-0.274143200105
0.325124326772
0.337951157552
0.342372329428
-0.273133226042
0.357304882311
-0.272903890225
-0.274149614715
0.350416631097
0.347584077054
0.340375710693
-0.281551242241
-0.273362348992
-0.288727904838
0.327682308606
0.329513076412
0.325140235102
0.330625954763
-0.286112258353
-0.283502038647
-0.271168663192
0.31681736001
0.31333172657
0.308359748982
0.30911148476
0.330261659745
0.327878031308
0.327010401997
0.321473825674
0.323698847121
0.318929803082
0.335440186993
0.327610725511
0.329214845064
0.323441931299
0.333158698934
0.325806401307
0.325205419629
0.33018494914
-0.288443891438
-0.265236871653
0.316907445058
0.306576619905
0.316995164942
0.309683989248
-0.277913237979
-0.282155667873
-0.283940897345
0.329836079474
0.313058987882
0.316686103802
0.334017844382
0.166400684303
0.167333383728
0.171721745101
0.17387040028
0.189715953415
0.180474711809
0.169350587101
0.191499041539
0.187316349384
0.226155238408
0.189807374414
0.228474295079
0.221961462303
0.232273791028
0.270763276287
0.267554334664
0.22797087569
0.270242959412
0.240199196479
0.25692351726
0.255876328353
0.26768801401
0.302314124911
0.276063716809
0.283547685458
0.260119567382
0.270422731327
0.267557576465
-0.27390996135
-0.287673065941
0.290724504561
0.303868516998
0.293002297237
0.300877774062
-0.294061175758
0.279461906949
0.280306939738
0.280853270794
0.272608993541
0.289286445085
0.296610178326
0.301311422678
0.28589218885
-0.276682535294
-0.273721784476
0.360463581733
0.363950732165
0.361718074433
0.357982120674
0.360058759606
0.357195329234
0.351625519516
0.34565213154
0.345671745653
0.347172771857
0.351197809832
0.352837419884
0.346039391593
-0.276866587954
-0.276999312754
-0.279815342039
-0.271738828026
0.352711778283
0.34460463515
0.351888806166
0.347399560913
-0.277262150682
-0.273259762869
-0.275157229224
-0.266132618058
-0.274944588251
-0.277366332502
-0.271614827298
-0.273973765904
-0.277759933748
-0.278325390796
-0.280765025275
-0.282704384944
-0.280140309806
-0.281087062911
0.314603969664
0.295090218296
0.284109426327
0.314500530656
0.330274420335
0.305031540624
0.324492919314
0.307431168252
0.340202134046
0.321305052535
0.343070605272
0.336100845437
0.326734719125
0.325052805245
0.34406074843
0.336534657803
0.341824773145
0.325877370802
0.340450603145
-0.281765647412
-0.279401545517
-0.277130747388
-0.28049580004
-0.281167173956
0.319959993812
0.0599629921265
0.0842109843094
0.06861037123
0.0896694767367
0.06117739994
0.0739322416298
0.070023978091
0.0305376341026
0.0141973879718
0.00729199994074
0.035689551936
-0.298127692246
-0.300420225461
-0.0253419118547
-0.305471482958
-0.301380428203
0.0149498360206
0.00627724275553
-0.00627460952619
0.0353544677334
0.0435816390133
0.0842870367656
0.0520883416254
0.0837094603825
0.0425874814256
0.0530916269311
0.0240873991561
0.026276108657
0.0191508063872
0.0454349578491
0.0522769502879
-0.297332261668
-0.297704397278
0.0246350319022
0.06365761042
0.00717108106379
0.0498345125378
0.136328066608
0.126769082151
0.114858660002
0.113782779919
0.130196855307
0.131309752232
0.120652927848
0.156220812091
0.174990819906
0.158152208292
0.145889065071
0.144182243347
0.172302527871
0.159489439208
-0.295362080105
-0.295960196028
-0.290494568262
0.125875289215
0.136746401082
0.0829443572378
0.128635295641
0.119250661098
0.11710359521
0.135862036766
0.15024632097
0.135696502492
0.153652927387
0.16921622937
0.139202263303
0.165406426348
0.139639146588
-0.286493803675
0.12090678686
0.0976571585924
0.105315875229
0.108888883523
0.141768958632
0.118498710477
0.136642122817
0.126042894236
0.134853316056
0.12491865612
0.144203153593
0.136396557817
0.103531179382
0.121402828268
0.106776472228
0.109387944519
0.12855622728
0.121898248134
-0.29885274487
-0.299855721641
0.154744404312
0.163544703263
0.175711923358
0.145406137725
-0.30077848516
-0.297789783537
-0.299115463544
0.135401828646
0.104720932155
0.110811728735
0.129765706865
0.152702527992
0.136725130089
0.163300098447
0.171260589092
0.175531119642
0.144049389844
0.147231554781
-0.297585308032
-0.295730387664
-0.298283860524
0.0840892068933
0.0729345424457
0.0821047973056
0.0759826418824
0.0977128559448
0.102985837726
0.0775439823719
0.0808400402885
0.103459396578
0.0439003092051
0.00885865391585
0.00816540081632
0.0420518310286
0.0738650976906
0.0990611564909
0.0978909909539
0.0730554387711
0.0708683485208
0.0818469894415
0.0610345437225
0.0928212124665
0.0567237601593
0.0904765049093
0.0652094462858
0.0659333058823
0.0845825154764
0.056742179526
0.0915581184915
0.00919566659329
0.0404238515613
0.0421549342123
0.0479675745414
0.0225889787898
0.0512777834028
0.0152584605189
0.0854065945714
0.0669431809861
0.0679943399263
0.0680991661627
0.0928712116344
0.0925281825405
0.0700960641019
0.149621045899
0.160030535779
0.163649168902
0.146845792073
0.136544496172
0.118464294872
0.137571204027
0.114557907918
0.13184296942
0.0923004229037
0.126350256805
0.106336986756
0.12470384265
0.102628263158
0.125033876721
0.126838476159
0.100799257604
0.123024284783
0.105583650545
0.097424028633
0.0911290520587
0.119194634012
0.135332399002
0.154047913801
0.140937682416
0.129121957897
0.0955532694449
0.101909426446
0.115444651506
0.123468072255
0.10364537603
0.105577918946
0.119530882838
-0.00033134096453
0.0301241426347
0.0158475956773
0.0425792219539
0.0201849191049
0.0473595196826
0.016408188446
0.0649598232851
0.0978666719814
0.0696513950343
0.0963628438304
0.0543115000931
0.0261636561586
0.0365128811606
0.0583681306959
0.0858104059172
0.0659300610424
0.0763625223231
-0.0281163046461
-0.0619916269399
-0.0829123864697
-0.0566215686914
0.000337524159881
-0.0115560530102
-0.0409088378914
-0.12090786653
-0.177061631438
-0.131970505595
-0.0873705110854
-0.0957035270895
-0.0836079942624
-0.104477241221
-0.117663254069
-0.186082996196
-0.157179497225
-0.0903915124774
-0.120093985477
-0.0753564139111
-0.115598391693
-0.0143378326128
-0.0531282476275
-0.0535390665974
-0.034567896216
0.00121653185725
0.00044276919211
-0.0364167991718
-0.104202038146
-0.180381744161
-0.0931109470574
-0.0687398301842
-0.120682675292
-0.0763585497686
-0.117278672345
-0.096965403778
-0.179257519656
-0.0908900071764
-0.0638930815464
-0.113152881163
-0.0672003677132
-0.113597829008
0.391897547127
0.382954481247
0.38935417984
0.392209723462
0.382927442616
0.389266259347
0.381982615345
0.36735692441
0.371199196238
0.379843200355
0.370419207577
0.371524079549
0.381083669307
0.383377511711
0.393895062321
0.383762938097
0.399077708188
0.392634998533
0.384929961621
0.398547506248
0.38496820779
0.402862862374
0.413418792613
-0.278042597354
0.393218150393
-0.271206201034
0.399892037952
-0.273252047782
-0.283975388461
0.0997635030465
0.130424476444
-0.296119499345
-0.302998177659
-0.298437573646
-0.286738893597
-0.286487533102
-0.292700280647
-0.288067505737
-0.289186000059
-0.282694392263
-0.288890814606
-0.298162344855
-0.281830475916
-0.291105710319
-0.280689794809
-0.286216601672
-0.286752891284
-0.286712387234
-0.280537827306
-0.283630004814
-0.2785903535
-0.275891988597
-0.275813543208
-0.25890449807
-0.24898632072
-0.255518331528
-0.264433216951
-0.252601091422
-0.264852937035
-0.260212448366
-0.00717164014451
-0.0109836082278
-0.142654881701
-0.0688700181874
-0.0184986733981
-0.022648294298
-0.153348093719
-0.0757416803823
-0.254885969172
-0.209060924764
-0.160040762677
-0.231576019797
-0.259400632149
-0.250549449385
-0.243529412018
-0.265087996865
-0.250560950736
-0.263553095141
-0.257849032909
-0.272776885571
-0.270010123875
-0.283428829442
-0.287354507447