/*--------------------------------*- C++ -*----------------------------------*\
| =========                 |                                                 |
| \\      /  F ield         | OpenFOAM: The Open Source CFD Toolbox           |
|  \\    /   O peration     | Version:  2406                                  |
|   \\  /    A nd           | Website:  www.openfoam.com                      |
|    \\/     M anipulation  |                                                 |
\*---------------------------------------------------------------------------*/
FoamFile
{
    version     2.0;
    format      ascii;
    arch        "LSB;label=32;scalar=64";
    class       surfaceScalarField;
    location    "0.01";
    object      phi;
}
// * * * * * * * * * * * * * * * * * * * * * * * * * * * * * * * * * * * * * //

dimensions      [0 3 -1 0 0 0 0];

oriented        oriented;

internalField   nonuniform List<scalar> 
88697
(
3.92828553773e-09
2.30310148509e-09
5.47718004036e-09
-3.82031838789e-09
3.6749096942e-10
4.69903294388e-10
-8.37393584527e-10
2.84079787324e-09
5.0614358498e-09
4.0296119511e-09
4.53573074702e-09
4.36361042672e-09
-4.47712749158e-09
5.43910014151e-09
-7.55821022296e-09
-1.90591540567e-08
-1.45066751639e-08
5.91379836773e-09
1.50621397773e-08
-1.2515080959e-08
1.56053058812e-08
5.98714376031e-09
-1.46251093074e-08
1.60914892822e-08
-1.34307113714e-08
-1.78463954395e-08
6.47666616616e-09
-1.82205204035e-09
1.43846344311e-09
7.51073855055e-10
4.14158875045e-09
4.52440491269e-09
6.01586444437e-09
-7.30532931321e-09
1.86407254248e-09
8.07350389825e-09
-1.98358360285e-09
-8.29121124194e-09
-2.31457254341e-09
2.65180969282e-09
1.85499741227e-09
-3.79443968699e-08
-5.76107324308e-09
-1.51074179326e-09
-1.41919528262e-09
-1.50217023463e-09
-1.40618001745e-09
1.75470217382e-09
1.43781591546e-09
1.64360259599e-09
8.7153949092e-09
9.83194554778e-09
1.02545569848e-08
9.37682413473e-09
4.67388262694e-09
7.84146086694e-09
1.36700814181e-09
-2.35571597572e-09
-7.69254706679e-09
2.70389136179e-09
-9.82868493662e-09
9.9289927731e-09
-6.09071047089e-10
1.72474971459e-09
6.38993711682e-10
-1.91946539488e-07
-1.96957426263e-07
5.90626854437e-07
1.09784869485e-06
4.80327546305e-09
-7.10861060459e-09
5.18484335061e-09
3.73335855035e-08
-7.69146000587e-09
-6.56905531856e-09
-6.66917866493e-09
-3.93148419467e-09
-4.48057170474e-09
-6.18349161478e-09
-5.90715343279e-09
1.38641035345e-08
4.2488386947e-10
5.9912927434e-08
-5.69770942722e-08
1.55233317006e-09
-5.90393475635e-08
5.41263172931e-08
8.57491523953e-09
-9.51868535257e-09
-3.91494571408e-08
-1.26732888429e-09
-1.32285394032e-09
2.31635987214e-09
2.74618410179e-09
-3.23532183577e-10
6.02117767154e-09
-4.01054709502e-08
4.30227132409e-08
-6.19749121482e-09
-1.19941561834e-09
-1.15565755503e-09
-1.32448462145e-09
-7.53321938387e-10
1.69195758571e-09
4.15750979071e-08
-6.43884866889e-09
6.48997262898e-09
-3.69803743788e-08
-1.24147617572e-09
-1.25029265844e-09
-1.02146371388e-09
-1.14395079088e-09
1.13366189774e-11
-6.30773153039e-09
3.03427719508e-08
5.42186042035e-09
-3.06871144311e-10
-2.79640352527e-08
-1.18599290267e-09
-3.74493746088e-08
-1.1465922139e-09
-1.09437133993e-09
2.10934053271e-09
2.89486067445e-09
1.52908232992e-09
1.52908835051e-09
2.21056519375e-09
1.91358643078e-09
9.0229692507e-09
9.77715020347e-09
9.79603015402e-09
-2.34616079629e-09
4.15621644799e-08
7.81453668694e-09
-1.821819446e-10
-1.08108815183e-09
-1.08009582688e-09
-3.86253877976e-10
9.49125963978e-10
-7.34843090599e-09
-3.52882774152e-08
8.95287063823e-11
-9.90613033842e-10
-6.61416265567e-10
-7.07980947557e-10
-1.63718127653e-09
3.05259379088e-08
3.04294761749e-10
-2.83951873289e-08
-6.75420654195e-09
-1.98859289005e-09
1.17290868202e-09
8.59682884876e-09
-8.58647178349e-09
-1.36160479941e-09
-1.81214757236e-09
1.99049195763e-09
1.42482368722e-10
-7.24248463181e-10
1.48097867315e-10
-1.71925551483e-10
6.05593726542e-10
3.9970228362e-08
-3.91716178698e-08
-1.58259976785e-09
-1.54779097535e-09
-1.61323352002e-09
-1.63300173843e-09
6.45337318782e-09
-6.63642503735e-09
5.54527538249e-11
3.87919652101e-10
-9.70379298611e-11
2.19146485483e-11
-3.68249716101e-10
3.82638681949e-08
-1.66030076693e-09
-1.5354885168e-09
1.48563590936e-09
2.06815218979e-09
2.01952454526e-09
1.55963524546e-09
-1.59024076631e-09
-1.71104851266e-09
9.14289224741e-09
-8.07239151735e-09
-2.56888370267e-10
-6.32781275475e-10
8.89667835836e-10
1.12011672692e-09
7.93902717405e-09
-1.23119579395e-09
-2.37882470603e-09
-8.12462145119e-09
2.67550486438e-09
-1.18649312055e-09
-8.15452142887e-09
1.30802490995e-08
3.90197182568e-09
-1.82689062252e-09
-2.48327326402e-09
-1.90150899352e-09
-2.44858861264e-09
2.32172353907e-10
2.88174614526e-10
1.82466352672e-10
3.16259782078e-10
-8.58816527629e-09
-1.26389781839e-09
8.39981505714e-09
-2.12080071983e-09
1.19611021196e-09
2.37693821831e-09
-3.40209743022e-10
-7.77089805804e-11
3.23099793352e-11
4.01449160938e-10
-1.58411355349e-11
9.17841042944e-10
-9.69399532832e-09
1.67914302823e-08
6.18333915536e-09
-5.29398905031e-10
-2.63822444896e-09
-4.2288300203e-09
-2.79949244517e-09
-4.00264565429e-09
-9.27698511937e-09
9.9801074127e-10
-1.70734110087e-09
9.01838759021e-09
-1.11135614575e-09
2.07928382926e-09
7.97699706552e-10
-5.65530371365e-10
-2.32170855756e-10
-1.02090432355e-09
-8.68763767532e-09
-1.54894104093e-09
9.32426379062e-09
9.76825845982e-10
-9.14507298305e-10
9.20446621198e-09
-1.60412198196e-09
-9.45772184928e-09
2.01368674495e-09
-8.70508379261e-09
-2.07570185167e-09
1.16531896457e-09
2.20022655221e-09
-6.07396199353e-10
1.21495992183e-10
1.07169178288e-10
5.21208683207e-10
-8.56953496492e-09
-1.0631418285e-09
-1.62545985409e-09
9.17724763762e-09
1.05998200559e-09
1.36211633286e-11
1.73898751127e-11
-3.15765134923e-10
-1.73942179608e-09
-1.07649038609e-09
-9.45634517313e-09
2.08077835786e-09
-9.77099669618e-09
3.76790488741e-08
-6.68753757362e-09
-8.40783023908e-09
-6.86439763667e-09
-3.58987608867e-09
-3.70975479014e-09
-5.85867088028e-09
-6.01484341154e-09
1.41898505324e-08
6.23280887547e-09
-5.12386420594e-08
6.31465606054e-08
-6.7556830207e-08
-5.51311495118e-09
5.49292021767e-08
6.03976133236e-08
-5.71574017277e-08
-5.92216181167e-08
2.34566303247e-09
5.40606771976e-08
-7.39186895231e-08
5.98888007254e-09
-4.70704498312e-08
-2.25350451742e-09
7.44826377604e-08
9.80313018635e-09
1.04621910043e-08
1.11102251871e-08
1.13955611062e-08
-7.95666836304e-09
1.28290468508e-08
3.64801934544e-09
-8.70713629096e-09
-9.99742596514e-10
-3.56189392739e-08
3.32073561045e-08
-1.81020329469e-09
-2.38795834819e-09
1.92316008071e-09
2.74050283958e-09
2.33671522684e-09
2.42234263067e-09
-2.69357330515e-09
-1.94458409374e-09
1.19989521681e-08
-1.01737518286e-08
8.42816644836e-09
-1.51210987554e-09
-1.82071293896e-09
2.23760355504e-09
-1.22551989638e-10
4.44172460176e-10
-1.14071982998e-11
-1.39179280954e-09
-2.18616191279e-09
2.06496235708e-09
1.54664378844e-09
1.29221636541e-09
2.013714526e-09
-1.45465567231e-09
-2.16288350754e-09
1.08755775493e-08
-7.95263799407e-09
-7.85288751483e-10
-2.11039944305e-10
1.53713796479e-09
8.37677656991e-09
-2.31052193794e-09
-8.42793751157e-09
2.63634570856e-09
-1.00622563804e-08
1.81438355728e-08
7.03102676669e-09
-4.57751304695e-09
-3.10268215852e-09
-3.26738311774e-09
-4.70643738255e-09
-1.53240470929e-09
9.03528539725e-09
1.92150726203e-09
1.64649380102e-10
1.78209561463e-10
-2.0319818093e-10
-8.63914138354e-10
-4.04248451989e-08
-1.29721107822e-09
1.96045530444e-09
-4.47089133694e-10
1.68244301441e-09
1.21671213053e-10
-1.02857398028e-08
-8.98195956439e-09
-4.41139268874e-08
8.6639113721e-09
2.22163570066e-09
2.76615485594e-10
9.57963782458e-11
2.24375295778e-09
4.44694934047e-10
-1.60418628012e-09
5.31164315267e-10
1.84312912181e-09
-7.59636790748e-10
-1.04692114356e-11
-4.47800649871e-08
1.77468999668e-09
2.93389075475e-10
2.54270716519e-11
3.4753760292e-10
1.46618709498e-09
-8.53399500999e-09
-6.69089992048e-09
8.02766215077e-09
-1.2132233989e-09
-3.29327663142e-10
-7.39900725933e-10
-1.22916738216e-09
1.08358977337e-09
4.50990773471e-10
-3.53243189392e-09
-1.55280286066e-10
7.71307280957e-10
3.10853417585e-09
-6.43119196301e-10
4.14970868432e-08
-3.82551703838e-10
-3.95058489096e-08
1.05819363956e-10
-7.9120244871e-09
4.59390055857e-10
-3.43133421671e-10
-1.30370414424e-10
2.83156233879e-10
-1.87323967405e-09
-9.10207182464e-10
-5.91105919356e-10
-4.17030494335e-10
-2.60352717476e-10
2.31370106322e-10
-8.02659843014e-09
-2.43995096314e-08
7.15899779348e-09
5.56368041089e-09
8.80107519623e-10
8.97413510423e-10
1.06887172824e-09
7.07993951426e-10
-1.09821510987e-10
-9.20431121192e-11
-3.96710304011e-11
6.10119726749e-09
7.02779439858e-09
-7.86190669629e-11
-5.06901131224e-09
-5.53283962461e-11
-9.77561527643e-10
-1.49580917831e-10
7.36748070484e-10
7.65285402451e-10
-3.19558534802e-10
-3.67980653026e-08
3.85317755648e-08
-9.62508957904e-10
2.47256506453e-10
-2.59535014933e-11
-4.56207514505e-10
-1.57329404007e-09
1.72483562717e-09
-3.81524047101e-10
1.06353035795e-10
9.87565292692e-10
3.64918418492e-10
-2.8021462705e-09
5.48812572714e-09
-3.29085129386e-08
-5.92665981022e-09
-1.07762351828e-09
-5.89316404781e-10
-1.13816415255e-09
-9.50715473008e-10
1.22469113399e-10
-3.48962292175e-08
-8.69888183918e-10
-1.12805923716e-09
-8.21439948897e-11
-1.34529145133e-09
1.25575893935e-10
7.48138456813e-11
5.66071985681e-10
-5.8191941272e-10
1.92147347063e-11
-7.81815116096e-11
-4.45482472312e-09
-5.45871354319e-10
-1.42398565412e-10
4.089218514e-10
3.94390036738e-09
7.90270658509e-10
4.87537211517e-10
-2.13110295789e-10
1.02729475751e-10
4.96142004864e-10
-9.84622051441e-10
-1.92786469072e-10
-1.13086722092e-10
2.10134557233e-09
6.71816586916e-10
-2.50937737167e-09
-2.50870297352e-10
3.70081420441e-10
2.71028902496e-10
9.18439320149e-10
-8.66109833068e-10
-4.28809238503e-11
1.45231641761e-10
6.34294821212e-10
-1.2517970404e-10
-1.8450360699e-09
5.54513044106e-09
-1.31642166973e-09
-6.65106077027e-09
-1.43429649406e-10
3.09008663194e-08
-8.09323719644e-10
-6.30985979232e-10
-9.79889059817e-10
-3.01882114773e-10
-2.77157457229e-08
-3.87390356788e-11
1.93577659157e-08
-3.05952187221e-09
-9.09961083241e-11
5.71780274667e-10
5.0589963689e-10
7.08023636054e-10
4.58611880335e-10
-1.85695349063e-08
2.57089576179e-11
-1.38501925723e-10
-7.61169716729e-11
-9.57199891311e-10
-1.18783776572e-09
-1.1672462032e-09
-1.21576083163e-09
8.33560384492e-10
-3.3284074359e-09
-7.98213965294e-11
3.842325104e-09
5.56401817133e-09
5.50559712123e-09
6.70131825145e-10
3.93579442655e-10
5.85940739809e-10
5.60043825062e-10
-9.56049626382e-11
2.88635395833e-11
-6.02284014022e-11
-1.23269633291e-10
2.93377111097e-09
5.85067458882e-10
-3.43229610752e-10
-3.2451352012e-09
-9.25561187582e-10
-1.40602566281e-09
-7.90860352006e-09
-3.23326690121e-10
-1.14120192857e-09
2.29185179859e-09
-1.21631574187e-09
1.41980039456e-10
1.27786368171e-10
-7.12522211464e-10
-1.0018651826e-09
-1.45635130903e-09
-7.75999332579e-09
7.23113245269e-10
-1.22157772574e-09
2.74141304714e-09
-1.4002494529e-10
-1.70313438349e-09
7.94887449519e-09
-4.16564540354e-08
2.29283637929e-09
6.91034449135e-10
2.2722249113e-09
9.4872350826e-10
-1.28276292562e-09
-1.32964129983e-09
1.98762268214e-09
2.24938278878e-10
-3.51767243347e-10
-4.09847335507e-08
3.0134966754e-09
1.64615812917e-09
2.74950918991e-09
1.36703300312e-09
9.00205125441e-09
9.13725350413e-09
8.93863181751e-09
9.05380581651e-09
-3.62397016055e-09
1.58470177712e-10
-2.37644112354e-10
-1.47395671445e-10
-9.9501992782e-10
7.94187238602e-09
4.99258817415e-11
3.59444760778e-10
-6.62190469617e-10
6.02215361711e-10
-3.57951604313e-10
3.85661747436e-08
6.55867561078e-09
4.71776587273e-10
9.22147632706e-10
5.68746256872e-10
3.94604169438e-10
-1.13585906228e-09
-3.47917756337e-10
6.29668170689e-10
1.85271268136e-09
4.13427461446e-11
2.37251139663e-10
-2.82177638072e-10
-8.25341516898e-10
1.9331603861e-10
2.38054427197e-10
3.8720837656e-10
1.08849109219e-10
-8.76598108205e-10
8.59932388598e-11
9.86423107018e-10
-4.38144236515e-10
-6.82072297148e-11
-1.4713155459e-10
-9.49985270088e-10
4.89100064104e-10
7.85238624308e-11
1.0288461894e-09
-9.76534919121e-11
2.09144541187e-08
3.29944729132e-09
6.50611292377e-10
-2.08297634775e-08
9.01099469955e-12
-3.14859942981e-11
-2.17018764455e-10
-6.02170846933e-11
-3.73504605403e-09
-1.49615890896e-10
8.91399333541e-10
-5.92047376933e-10
-4.06372306486e-09
2.55366305054e-09
-3.6724942723e-08
-3.43950612905e-09
-9.24353667354e-09
-3.2407617252e-11
-6.90341993386e-09
-3.27705879575e-08
-1.50855898448e-09
1.15618964092e-09
8.69368112445e-10
1.02080078729e-09
8.33437990642e-10
3.14773312214e-12
1.02265723266e-10
1.59653326507e-10
3.94440859295e-10
-5.47075929646e-09
-2.07915290711e-08
-9.71820548898e-11
5.13324320263e-10
7.81273717348e-10
6.79727441857e-10
6.00844847837e-09
4.61272326422e-09
6.22511021617e-09
5.06672208496e-09
-3.22127008528e-11
-1.30960741659e-10
-1.14371139237e-10
-3.31281510048e-08
-2.14319818187e-09
-7.70645123883e-09
4.39249522044e-09
-7.28983453192e-12
-2.09830029054e-08
-5.7367778986e-11
5.88705303168e-11
-4.5889018394e-10
-1.88422098181e-10
-3.58619207844e-09
1.04744002348e-09
-7.91316765508e-09
-2.0300310501e-09
1.92353784842e-08
-2.9277292688e-09
-4.4756687651e-11
-1.91165368855e-08
2.55207419746e-10
-2.60616226825e-10
1.03784387686e-10
-1.36099019037e-13
6.07094450344e-11
1.99319148519e-10
2.95391161647e-10
-3.16234040301e-08
-2.00312407294e-09
-7.42211180792e-09
-3.3938949701e-10
-1.9747000037e-08
-4.09381292702e-10
-2.95069051572e-10
7.02875559417e-10
-3.90703161044e-10
-3.43210547774e-09
8.90263288116e-09
-9.43695981914e-09
1.88740179666e-09
-2.32162799376e-10
-2.46045486017e-10
-2.49538043689e-10
-2.24294938946e-10
-2.06132592603e-09
2.26583182673e-10
5.70526558859e-10
-2.71200878906e-10
6.78424733822e-11
-5.93751379826e-10
1.93617884322e-09
8.33905375209e-09
-1.93147739429e-10
-1.5927924476e-10
-1.65149660685e-10
-1.83814535884e-10
-2.20667979859e-09
-8.46550797295e-10
2.44861966427e-10
-8.59415001935e-11
1.76488560593e-10
-2.33481812482e-10
7.4462416284e-10
-9.45625811946e-09
1.71380997725e-09
-1.86371667569e-09
9.07969139475e-09
-2.48262113321e-10
-2.44605148402e-10
-2.6498655759e-10
-2.2640524872e-10
-1.7057775522e-09
9.07821791971e-09
1.54340940308e-09
-2.32742365224e-10
-2.27959873357e-10
-2.4649608651e-10
-2.14186081606e-10
-9.41365373442e-09
-2.34756668739e-10
-7.79519866852e-11
-1.1041932166e-09
2.11174938727e-10
2.11741407251e-10
9.93985767397e-10
4.14554165642e-10
8.40886465752e-11
-4.60143127826e-10
-1.21724470302e-10
8.32252998188e-11
-1.80719004784e-09
-9.76505786643e-09
-2.66078661927e-10
-2.78819070121e-10
-2.73707896074e-10
-2.73340057158e-10
-2.37371874631e-10
6.6164338642e-10
1.66409839726e-10
-7.88502004659e-10
1.97820916659e-10
8.67659160714e-09
1.49320608144e-09
-2.12799447035e-10
-1.80694028533e-10
-1.94346951141e-10
-1.96106498492e-10
-9.78420922615e-09
-2.77252457871e-10
-2.64513301462e-10
-2.66565728361e-10
-2.75776975118e-10
-2.01493383615e-09
-7.13782454709e-11
-1.2121584875e-09
-2.68827723185e-10
2.06433405401e-10
1.11116938599e-09
-1.00947352655e-08
-2.74711117812e-10
-2.8240327458e-10
-2.78369144338e-10
-2.78201718847e-10
-1.93076420298e-09
-7.78809513113e-11
1.86595674001e-10
-2.42814441031e-10
-9.49824208519e-10
8.5294378555e-09
1.68771695525e-09
-1.76349079416e-10
-2.13543417835e-10
-1.92603921509e-10
-1.95623416073e-10
1.52807693965e-09
4.9061250229e-10
1.82912900047e-10
4.90657799746e-11
-4.96005644571e-10
-1.6883773082e-09
-8.13803880554e-09
3.88590821296e-10
-1.1972817439e-10
-8.87664091644e-11
-9.73062858705e-11
-1.11539732626e-10
7.55101229518e-09
3.28182696484e-10
3.78718812018e-10
3.19988968854e-10
1.27726968582e-09
6.85619903368e-11
3.82341054371e-10
-1.05609932147e-10
6.92598142078e-11
7.92786026127e-09
-1.41215943241e-10
-1.31641073163e-10
-1.18073792157e-10
-1.55473799918e-10
1.39580691881e-09
1.31345540037e-10
5.90288996401e-10
1.8486822027e-10
1.43270424742e-09
-1.50712578697e-10
-1.56351636807e-10
-1.67474499031e-10
-1.41944881174e-10
1.41006378806e-09
-4.01764908877e-10
1.35012963216e-09
8.60587043375e-11
3.8700467711e-10
4.28918091842e-11
-1.46431786069e-09
-1.2839023092e-09
3.32953674504e-09
2.62507252157e-10
-2.45303320802e-09
1.448923966e-10
-1.69576756202e-09
1.26543341811e-10
2.60988230478e-10
-1.04118358972e-11
1.61327307118e-09
-2.94624584466e-10
1.31748281052e-09
1.76459016895e-11
2.6804048775e-10
-3.19451961363e-10
1.18709706944e-10
-1.40242590432e-09
-9.75024286136e-10
1.34723095593e-09
-3.72209743069e-10
-3.38196606803e-10
-1.78815584223e-09
1.99661893067e-10
1.69166017416e-09
-9.71962410526e-11
3.32227104309e-10
1.37184943991e-09
1.2051925898e-10
-4.19079370977e-10
1.89259399175e-11
-1.49397292207e-09
1.00352225135e-09
-2.41122397021e-10
-7.41834143651e-10
-2.05939299597e-10
1.85372287164e-10
-1.97385315993e-09
-4.14856026255e-10
2.63081887048e-10
-1.51306480567e-10
1.8953331936e-09
3.81601475946e-10
1.47958799971e-09
-4.49781054973e-10
1.4314491384e-10
4.48882688858e-10
3.28027619277e-11
-1.65462359706e-09
-1.83019256989e-09
2.30592137595e-10
1.73170700902e-09
-1.22400687974e-10
-3.47897143996e-10
-2.45469978156e-10
1.47642682149e-10
1.65608202064e-09
-4.59543565336e-11
2.15210618877e-10
-1.72750917792e-09
-1.90225355619e-09
-2.26591961509e-10
2.3473155367e-10
2.00495225477e-10
-1.52010830331e-10
1.84563080412e-09
-2.70737044277e-10
2.81088116575e-10
-2.09347610812e-09
-2.1562116177e-10
2.45408566764e-10
2.05333654202e-09
-2.33757285861e-10
2.51841637334e-10
2.080230079e-10
-1.71402331959e-10
-1.95695703806e-09
-2.09083265015e-09
-2.83515538347e-10
3.00936459072e-10
2.0196718864e-09
-2.33151117021e-10
2.86889809045e-10
1.75281212738e-10
-6.82512711127e-11
-2.78013097923e-10
-1.77024672877e-09
-3.22720664195e-10
2.36914494242e-10
-1.87766976218e-09
-1.41686232039e-10
3.17012215641e-10
-1.95552038754e-09
2.55561464734e-10
-2.54453153782e-10
-1.67969051104e-10
1.89578922963e-09
-8.29979794702e-09
-1.28896108698e-09
3.20839036431e-10
2.08707361833e-09
-1.5272557791e-10
-1.4887721556e-10
-1.5220806697e-10
-1.46110788721e-10
3.19146800565e-10
2.76572430909e-10
2.65536919192e-10
2.11446244945e-09
1.75767368699e-09
1.80158956673e-09
1.24575311789e-09
1.34192472065e-09
8.73502538582e-09
-1.77975350357e-10
-1.98797116901e-10
-1.8837716698e-10
-1.86901259478e-10
-9.11477747011e-09
1.33329323384e-09
2.22003338221e-11
-4.25749615088e-10
-4.50777653784e-11
1.0303381912e-10
3.45593237968e-10
3.61214181227e-10
-4.01461376138e-10
7.41272866323e-11
5.02076142725e-11
1.1759712393e-09
-8.71015237789e-09
-1.64120247863e-10
-1.71397079375e-10
-1.73119687998e-10
-1.62946815173e-10
1.24788463838e-09
8.26594855435e-09
-1.6427884498e-10
-1.58684200364e-10
-1.7115003726e-10
-1.54725382008e-10
1.32214878149e-09
-2.23306456925e-11
1.4611040969e-10
9.07028699331e-11
-2.1552209635e-10
1.03912082403e-12
3.02279301724e-10
-2.13443094511e-09
-2.41083590397e-10
3.03242307458e-10
-3.53178875694e-10
3.46675236791e-14
1.01799529232e-10
2.73539841624e-10
-2.1475312552e-09
2.94931490782e-10
-2.30065657925e-10
-2.98729762804e-10
2.11065177982e-09
-8.33741501784e-09
-1.5352332393e-10
-1.64430620988e-10
-1.61630113388e-10
-1.57583431439e-10
1.18127973776e-09
1.75833764629e-09
2.1466518263e-09
1.80869102287e-09
2.11621223681e-09
2.59261086022e-10
3.16423857298e-10
2.55252469417e-10
3.08403273863e-10
8.46206709664e-11
-1.06952113187e-10
2.6998720343e-10
-2.60300914104e-10
-1.86933774097e-10
-2.01202985866e-09
3.1178239949e-10
-3.08194886122e-10
2.05203267882e-09
-2.52069796769e-10
2.89783070793e-10
-1.93653309328e-10
-2.04231407289e-09
3.6093459953e-10
3.30830255441e-10
6.31744449556e-11
3.5770069e-11
-1.29947091286e-10
-1.39399621667e-10
-1.28524126268e-10
-1.36281600286e-10
1.30181187463e-09
2.92291173949e-10
3.40060858287e-10
3.44887617908e-10
2.85149682632e-10
1.75315144477e-09
2.07469722216e-09
1.79597592838e-09
2.04475195222e-09
2.63987614158e-10
-1.91707048126e-09
-1.66525623091e-10
-3.33296982158e-10
6.49794835012e-11
8.22705848157e-11
-1.14252088525e-12
-1.91159313406e-09
3.65750927794e-09
1.98194953663e-09
-1.16541436712e-10
-3.88826363175e-09
2.76939474625e-10
-6.43171003065e-09
5.8410913459e-09
-8.88317011347e-11
-2.45128434304e-08
-2.77176223916e-09
-6.08004023721e-09
1.85928043482e-08
5.69853405504e-09
2.62553474457e-09
-1.56619437442e-08
-5.17488897943e-09
-2.67669735568e-09
4.96737651274e-09
2.83961253118e-09
-4.039445634e-09
-1.09084703232e-09
4.09605222382e-09
-7.04376783176e-11
-1.87496296036e-09
7.189634374e-11
-4.13415661945e-09
-6.60020454209e-10
-6.25097772288e-09
-2.461506142e-08
-3.30086287319e-09
1.83421472539e-08
2.94996593739e-09
-6.28259480094e-09
-1.54148228069e-08
-5.67473982855e-09
4.68775292209e-09
-2.31386168173e-09
-1.73470567083e-09
-3.31590084528e-09
3.54430064556e-09
5.42996636554e-09
1.24683158999e-08
-9.3004673104e-09
-5.60270931079e-09
-6.5394059731e-09
-5.75333030942e-09
-2.35943711978e-09
6.39378092167e-10
-2.82853136768e-09
8.37908977195e-09
-2.30879549013e-09
2.52511619195e-09
3.31955754364e-09
-1.71288058859e-09
-1.82299804197e-09
1.60832283118e-08
1.81382942777e-08
6.18209498829e-09
-1.48597506752e-08
-1.8430347898e-08
1.92419273113e-08
5.89419963735e-09
-1.45854150083e-08
-5.70597386379e-08
3.18259247821e-08
5.85710851433e-08
1.44492334227e-09
-1.03011224601e-08
-1.47771744295e-09
1.21118448987e-08
4.71824001411e-09
-6.49617076613e-09
7.19610225689e-09
-3.83483276861e-08
-5.80799502792e-09
6.80048688902e-09
8.04564438101e-09
9.09810751007e-09
8.41312609687e-09
-1.60093972036e-08
-1.81145429845e-08
-1.8753699023e-08
-1.64381846595e-08
-1.01925593816e-08
1.62273982747e-09
1.18306599816e-08
4.89203524593e-09
-6.70796242194e-09
7.01899648865e-08
-3.87571444489e-08
8.51150206655e-09
6.67198973029e-09
9.20334048395e-09
6.47085196138e-09
9.10817601676e-09
-1.55831429721e-08
-1.57264227201e-08
-1.63131350143e-08
-1.65798748188e-08
4.00749289322e-08
-1.92054551076e-08
-3.67754911445e-08
1.28662108522e-08
-5.02495330974e-08
6.1189954786e-08
6.97232350397e-09
-6.57495094757e-08
5.40695801184e-08
-4.59882767742e-08
8.80665191952e-09
7.23122183285e-08
9.71060661955e-09
9.45041255161e-09
1.08228416378e-08
1.10643823525e-08
-8.14856266323e-10
3.68607110387e-09
-3.12732029435e-09
6.5304563689e-10
-9.62472009538e-10
5.72013077089e-08
-2.30638964732e-09
-5.05328776787e-08
4.54270965522e-09
4.86112386789e-09
-2.78167520989e-09
-3.17462808294e-09
-3.23102898027e-09
-2.57552810026e-08
-3.35532122475e-09
6.00696619281e-08
6.24576136598e-09
5.75577926982e-09
-2.74876648172e-08
-2.80723154041e-09
-3.12866191884e-09
-3.21801701294e-09
-8.85939683941e-11
-1.35959997714e-09
1.4501344412e-09
2.17395839534e-10
-2.19336251779e-10
-5.84955445483e-08
1.16580546253e-08
3.01162163318e-08
6.06076641582e-08
-1.05400295419e-08
7.38552489825e-09
6.26532474891e-08
-5.8296629245e-09
-3.84476193219e-08
-6.41098100577e-08
-5.76557357523e-08
-1.36803639149e-08
3.13691444965e-08
5.95084774131e-08
6.15370294269e-08
9.30163143422e-09
-3.83211057873e-08
-6.38891665481e-08
1.2342750696e-09
-6.04881381401e-09
-1.22787732587e-09
3.99118025806e-09
-8.24989436908e-09
2.10344497004e-09
-7.59225233425e-09
8.90955643619e-09
2.2488669325e-09
-1.77916016313e-09
-3.89045660807e-09
-1.85187699469e-09
1.87314335923e-09
-4.15276203317e-10
3.33344062738e-09
7.18064011163e-10
8.66027413793e-09
-1.72481182178e-09
2.13799269195e-09
2.2993922992e-09
-7.75961914822e-09
-3.6132283357e-09
1.22994572382e-09
4.17463457639e-09
-7.96505009133e-09
-6.39782684046e-09
9.68791238653e-09
2.23363931308e-09
2.68904145292e-09
-3.84690661934e-09
-1.89466422378e-09
-7.79934813012e-11
4.03819462914e-09
1.78614856118e-10
1.3780228366e-09
-1.54710945512e-09
-5.89089102472e-09
-3.25711911492e-09
1.38679660808e-09
1.28489567614e-08
-6.25652764778e-09
-1.3208191505e-08
-1.30694925377e-09
6.53591518336e-09
3.29083583331e-09
-2.73353328656e-09
-6.34406440229e-10
-7.37754244123e-10
-9.679496503e-09
-6.59928956426e-09
-1.44099927279e-09
1.12786277509e-08
4.1347572537e-09
1.23078716413e-08
-6.3100555647e-09
-1.27425621401e-08
1.46967620401e-09
6.66186321132e-09
1.53892607032e-08
-6.27433740363e-09
4.98293623314e-09
-1.43101905795e-08
-3.14299161114e-09
-1.16460565833e-09
1.2495595183e-09
4.84680813882e-11
-2.22022002423e-10
7.84425248416e-10
-2.98503104459e-10
-4.85923046828e-10
6.45860644315e-10
-8.25836848717e-10
3.91585735917e-09
-1.07783037373e-09
-4.91347271493e-10
2.15133922144e-08
-9.92917383205e-09
1.40929987331e-09
-5.66040993802e-09
-4.63688122718e-09
-4.74728945887e-09
-5.61207642868e-09
-7.26281065193e-10
-7.24446689084e-09
1.27842063882e-08
2.38573743251e-09
5.10866880803e-09
-6.28341716192e-08
1.32557693811e-08
6.79926196749e-08
9.30496754945e-09
5.69896979227e-09
6.25413300868e-09
7.50915640973e-09
-3.86699507195e-08
8.2064929284e-09
7.97304274372e-09
7.40338379921e-09
7.0998729207e-09
8.17249774307e-09
-3.22189007831e-08
-1.46333945123e-08
-1.45898991549e-08
-1.58204819837e-08
-1.69691650826e-09
-2.47876668213e-09
-2.40103242897e-09
-2.46080341083e-09
3.69113202547e-10
-3.74760424469e-10
1.46513777759e-09
-6.75065716235e-10
3.25691813765e-09
1.98743374642e-08
-2.23649990724e-08
-2.30357602454e-09
-8.15667726208e-09
-2.09543048017e-08
-3.05084774149e-08
3.21101033909e-08
8.53394278721e-09
2.31961687009e-10
-3.57268514318e-11
-9.35188968856e-11
-2.22419744998e-09
-5.04734641982e-09
-2.59722153124e-09
1.36874336421e-09
5.9154441872e-09
7.57382087913e-09
-2.78064867515e-09
-1.94448873669e-09
1.07641787332e-09
-7.14987879564e-09
-2.76790868626e-11
-3.67601700922e-10
3.01242496559e-10
-4.79681296292e-08
-2.28891412414e-09
3.66041867571e-09
6.993547094e-09
-2.98841567085e-09
-1.53734351798e-09
-8.4951747995e-10
-2.84844509301e-08
-1.03511788035e-10
1.84557346539e-10
-1.67317116837e-10
-1.27333464126e-09
-2.88629973367e-10
-1.68545621382e-09
2.64080674075e-09
-1.07602122452e-09
-4.3259776117e-09
-1.34053104708e-08
3.66290011588e-09
6.9073495222e-09
-2.33785179403e-09
-2.69154754578e-09
-8.35761721263e-10
-9.67991854341e-09
-1.33631577301e-08
-2.32676390557e-08
2.09242939918e-08
-9.99393167914e-09
4.46576024106e-10
-4.48280902802e-09
-5.54369629294e-09
-5.48942966393e-09
-4.30897927801e-09
-7.66068570751e-09
1.29425811106e-08
-7.86210290917e-10
7.62698458999e-09
7.67077576476e-08
-3.88592046238e-08
-1.89646925955e-08
-1.65899184106e-08
8.58434211466e-09
6.97697813081e-09
-1.92422528978e-08
6.74130684674e-09
-3.41316440709e-09
-1.66518259698e-08
8.90267881966e-09
9.26362132171e-10
-5.57250828387e-10
6.48978501176e-10
4.08466163953e-09
-1.18700110237e-09
-5.9744008333e-08
7.02141330928e-08
7.18997760932e-09
5.76700734382e-09
-3.83275378281e-08
7.76107898785e-09
8.46014567106e-09
-3.35371430866e-08
1.91052792516e-08
-2.2603816942e-08
-6.98840920646e-09
1.55623636827e-08
5.68289205067e-08
-1.44785363013e-08
-5.6651151788e-08
2.53538339022e-08
5.42839680471e-08
1.6399320615e-08
-5.1932551604e-08
1.91427305102e-08
-1.57673036196e-08
-1.88750780697e-08
4.34688060942e-08
1.30977165029e-08
4.09448914519e-08
-1.93454960139e-08
-3.79156423043e-08
1.38834849526e-08
4.35352503927e-08
-1.85070257833e-08
1.51910515015e-08
5.60804329255e-08
1.63605877651e-08
-5.62342140003e-08
2.63365065948e-08
-2.01984260808e-08
-5.0552736332e-08
1.98936862862e-08
5.38698271838e-08
5.39274687951e-08
-1.91927668907e-08
-4.98630370915e-08
1.74964802094e-08
3.98486665525e-08
1.72847516163e-08
-3.63900151915e-08
8.79104856312e-09
-1.55991774173e-08
4.39915296688e-08
1.81667891846e-08
7.97487673282e-09
-1.59700088403e-08
-2.04678774301e-08
-4.28527540121e-09
1.18738840663e-09
1.23113900457e-09
1.2806858381e-09
1.1282010802e-09
2.1494452444e-08
-1.94257443348e-09
-4.13718079256e-10
2.21231122726e-09
5.77858872644e-10
-4.33876867846e-10
-1.90858028748e-08
-3.98100372484e-09
1.01716832993e-09
9.09779992166e-10
9.3800511204e-10
9.75497061819e-10
-3.18061013556e-10
-1.75046764561e-09
4.83760906753e-10
-3.57810154986e-10
1.7755678374e-08
-3.73939598225e-09
6.54610134239e-10
5.99346129719e-10
6.05049588402e-10
6.48904061591e-10
-1.62662874732e-08
-3.96617689636e-09
7.39270390688e-10
7.73711159685e-10
7.89681974923e-10
7.29351459017e-10
-1.11593841262e-08
2.83650970503e-09
-2.56342721288e-09
1.18352851917e-08
-2.71348323381e-09
1.76449834469e-09
3.10541402802e-09
-2.1957566932e-09
-1.06360879714e-08
-2.68363002035e-09
1.25066204519e-09
7.6539987901e-11
-5.01018715335e-10
3.77867039064e-10
-1.08682898578e-10
4.22401871198e-12
-3.47364679412e-10
-1.89189129452e-11
-3.69135505548e-09
9.90370987396e-09
-7.11645663655e-10
4.23849406855e-09
-9.050286971e-09
-6.88917426836e-10
-2.96427265911e-09
-1.87797262243e-09
8.73110077144e-10
8.12477846252e-09
3.22816456192e-10
1.14444475468e-11
-2.24770685116e-10
-4.49233662159e-09
-2.05329377477e-09
-1.90402644939e-09
1.10299306177e-09
5.12245417455e-09
4.3673522337e-09
-1.65792799127e-09
-1.22263953169e-09
-3.50287193396e-09
1.399629879e-09
6.16457214909e-10
-7.27024161193e-11
-8.2513618817e-10
7.27008966332e-10
7.98304770131e-11
7.1867711633e-09
-2.49044803326e-09
1.48844765584e-09
-6.62728130465e-09
-2.33815187949e-09
7.30118919815e-10
-9.6898259012e-11
6.9392638781e-11
-7.82440606807e-10
-5.50687410159e-10
4.519615771e-10
-5.22331690183e-11
2.72678374831e-10
-1.18385668376e-10
4.28920209788e-10
-5.31863109279e-11
1.41096294558e-10
-4.10494928323e-10
9.57759664082e-09
-1.35241029629e-09
-3.29706277096e-09
-9.01534404725e-09
3.95845147381e-10
-1.78017540578e-09
-2.22168386281e-09
5.56308270503e-09
1.82153239423e-09
9.84583633004e-10
-2.63444191867e-09
1.47487682508e-09
7.93447954482e-09
-2.55243879333e-09
-1.03578530016e-10
5.55437577435e-11
6.35735313059e-10
-6.20089071375e-09
-1.02580231428e-09
3.56910788835e-09
-8.31083611263e-09
-4.08692584231e-11
-1.62593015152e-10
-1.06466504554e-09
-7.50203165344e-10
1.8074292641e-09
-1.34586428697e-09
-1.12719416917e-08
-2.27566972544e-09
1.16572225181e-08
3.26858344038e-09
1.45830051863e-09
-1.32706367531e-08
-4.09732340034e-09
1.41125416955e-08
3.45102928197e-09
-4.52159657325e-09
-9.49491260773e-11
-7.72347125896e-10
-1.29069264127e-09
-3.7139149863e-09
-1.75451032552e-09
4.06831879626e-09