/*--------------------------------*- C++ -*----------------------------------*\
| =========                 |                                                 |
| \\      /  F ield         | OpenFOAM: The Open Source CFD Toolbox           |
|  \\    /   O peration     | Version:  2406                                  |
|   \\  /    A nd           | Website:  www.openfoam.com                      |
|    \\/     M anipulation  |                                                 |
\*---------------------------------------------------------------------------*/
FoamFile
{
    version     2.0;
    format      ascii;
    arch        "LSB;label=32;scalar=64";
    class       surfaceScalarField;
    location    "0.01";
    object      phiHbyA;
}
// * * * * * * * * * * * * * * * * * * * * * * * * * * * * * * * * * * * * * //

dimensions      [0 3 -1 0 0 0 0];

oriented        oriented;

internalField   nonuniform List<scalar> 
88697
(
3.29321705275e-09
-9.87297657333e-10
5.60598638982e-09
-3.26792050467e-09
-4.55446750381e-10
4.37261937132e-10
-5.41180161725e-10
-5.36605823617e-10
5.10579522917e-09
3.42088938261e-09
3.95460186149e-09
4.45314996561e-09
-3.95241776787e-09
2.23354459346e-09
-7.61133283264e-09
-1.85523484708e-08
-1.10429334659e-08
6.04774062719e-09
1.18900340953e-08
-9.24616472951e-09
1.50986829738e-08
5.80438115522e-09
-1.41109076839e-08
1.2740491102e-08
-1.00351351229e-08
-1.73572616955e-08
6.54654048937e-09
-1.81268205168e-09
1.1229533887e-09
-2.71277976219e-10
4.13005807973e-09
3.97932773017e-09
2.75034450425e-09
-7.30129780142e-09
2.04302102818e-09
7.3188519978e-09
-1.97042519669e-09
-7.63739055562e-09
-2.49299752596e-09
2.63142697455e-09
1.95100599453e-09
-3.5509381835e-08
-6.25037784186e-09
-1.5060542804e-09
-1.41647606801e-09
-1.49865069794e-09
-1.40171697965e-09
1.8650345249e-09
1.53784078277e-09
1.75562118784e-09
8.14701447648e-09
9.21875168682e-09
9.62123461115e-09
8.7575321334e-09
4.71065058118e-09
7.10294241183e-09
1.53156237717e-09
-2.30119545735e-09
-7.09404212829e-09
2.67603470243e-09
-9.20167542829e-09
9.34132618754e-09
-6.38192309776e-10
1.82512311922e-09
6.64532134436e-10
-1.78927666206e-07
-1.83877181177e-07
5.37424463977e-07
1.09571703732e-06
-2.2150390112e-08
-7.86995687597e-09
5.87784000235e-09
3.44074704121e-08
-6.96942999459e-09
-5.84462938367e-09
-5.93078602877e-09
-3.89477982333e-09
-4.4412021786e-09
-6.17460667193e-09
-5.89453850463e-09
1.38165370737e-08
-8.16512364891e-10
5.66084145839e-08
-5.4770005876e-08
2.78789035928e-09
-5.90256896993e-08
5.39189159689e-08
8.76902499369e-09
-9.68488980725e-09
-3.6504896765e-08
-1.26161950211e-09
-1.31734495151e-09
2.03851854825e-09
2.42418717305e-09
-1.11981368305e-11
6.40172313493e-09
-3.68227565179e-08
3.97997833987e-08
-6.59176346066e-09
-1.16702592961e-09
-1.12737935931e-09
-1.28577020529e-09
-7.48496428396e-10
1.670092334e-09
3.80123363875e-08
-6.74038870011e-09
6.8151481861e-09
-3.36154754169e-08
-1.18674508659e-09
-1.20464394908e-09
-9.77779276971e-10
-1.10235072598e-09
-6.66726854642e-11
-6.34273369271e-09
2.7192324092e-08
5.50719513274e-09
-2.65138139969e-10
-2.47226406091e-08
-1.25837342304e-09
-3.48693509968e-08
-1.14015283372e-09
-1.08735398924e-09
1.85885038744e-09
2.58582353324e-09
1.61775270379e-09
1.62792942422e-09
2.25518031384e-09
1.96549692601e-09
8.41708636227e-09
9.14772669835e-09
9.13240364501e-09
-2.03367595015e-09
3.83166450709e-08
8.03782887513e-09
-2.05266267619e-10
-1.05924133086e-09
-1.05459916648e-09
-4.07534152356e-10
1.00145814288e-09
-7.5982264591e-09
-3.22543861761e-08
4.71155295739e-11
-9.56551769278e-10
-6.40238535238e-10
-7.00048812109e-10
-1.66913350677e-09
2.74394201379e-08
3.47425827273e-10
-2.51380739216e-08
-6.82261025355e-09
-2.02841779156e-09
1.28996989695e-09
8.02932828094e-09
-8.0650958899e-09
-1.33987555107e-09
-1.94515938842e-09
1.96147200959e-09
1.79254123403e-10
-5.11941187144e-10
1.45580358623e-10
-2.09655157644e-10
3.97152753515e-10
3.75248495074e-08
-3.6715640967e-08
-1.57554159076e-09
-1.54299670318e-09
-1.60898935276e-09
-1.62548853721e-09
6.43483117644e-09
-7.14513649894e-09
9.96048194818e-11
1.92230152238e-10
-1.40313956105e-10
2.24254181703e-11
-1.66716164878e-10
3.57158287762e-08
-1.67030250216e-09
-1.54786302671e-09
1.59644436173e-09
2.19970256744e-09
2.14170869983e-09
1.67132321104e-09
-1.60353176633e-09
-1.72214478436e-09
9.0907667574e-09
-8.57367180577e-09
-1.16154946027e-10
-5.62790709714e-10
7.33875885292e-10
1.26540947187e-09
7.18260104872e-09
-1.38094383652e-09
-2.32245773904e-09
-7.44658990123e-09
2.65075840143e-09
-1.39767857646e-09
-7.99370110518e-09
1.23808344573e-08
3.95162255863e-09
-1.63549787603e-09
-2.28255861341e-09
-1.70473518234e-09
-2.24705509667e-09
3.00008715426e-10
3.60108084508e-10
2.61341268221e-10
3.72557539642e-10
-8.01306638599e-09
-1.39122261177e-09
7.84555592365e-09
-2.11581470004e-09
1.32685098636e-09
2.35804561677e-09
-1.43131891892e-10
-1.22659315707e-10
7.77147863198e-11
1.97212685013e-10
-1.35637533707e-11
1.23681398155e-09
-9.50028824874e-09
1.60703561918e-08
6.19764969932e-09
-8.06001514512e-10
-2.46758431515e-09
-4.01315570351e-09
-2.62454647199e-09
-3.79305801444e-09
-8.6271619898e-09
1.14035987982e-09
-1.70086456564e-09
8.3839590947e-09
-1.24465742166e-09
2.07544375027e-09
6.36034553956e-10
-5.03675042761e-10
-1.01321177577e-10
-1.12226157148e-09
-8.09545471649e-09
-1.53559980712e-09
8.7221249625e-09
9.94313336695e-10
-1.05298703458e-09
8.54163612609e-09
-1.61022066454e-09
-8.82053413671e-09
1.98914677117e-09
-8.15891258774e-09
-2.07826692966e-09
1.2876892332e-09
2.17016669609e-09
-4.01689113953e-10
1.19176731283e-10
1.45853558672e-10
3.12694874542e-10
-7.9937109531e-09
-1.15451894801e-09
-1.60872598887e-09
8.59775114258e-09
1.08063633823e-09
5.96526240643e-11
1.76670206064e-11
-1.18211535402e-10
-1.74043908401e-09
-1.20242869487e-09
-8.83724421452e-09
2.05832643635e-09
-1.0381415008e-08
3.4794588609e-08
-5.96133626353e-09
-7.62456469306e-09
-6.1300435594e-09
-3.57950875258e-09
-3.71977330703e-09
-5.85360553417e-09
-6.01555015676e-09
1.41906051957e-08
7.41356649039e-09
-5.09085165929e-08
6.01615845837e-08
-6.4053185551e-08
-6.80905828775e-09
5.48262108227e-08
5.71544463972e-08
-5.49155181689e-08
-5.91901432298e-08
1.28281845238e-09
5.38799982771e-08
-7.08207771402e-08
6.90530428513e-09
-4.65847897712e-08
-3.27506192424e-09
7.10916956593e-08
9.71399983661e-09
1.0354283174e-08
1.10058293511e-08
1.12818292818e-08
-7.81201740064e-09
1.21280535682e-08
3.65880545515e-09
-7.92997134187e-09
-1.18570560761e-09
-3.29324740278e-08
3.03099080113e-08
-1.7847311981e-09
-2.41002029634e-09
2.09409188541e-09
2.91712685593e-09
2.50053637778e-09
2.58673241531e-09
-2.7028618552e-09
-1.92056577475e-09
1.19832915521e-08
-1.08459451443e-08
7.87814496347e-09
-1.4758104121e-09
-1.96476664173e-09
2.21566295068e-09
-1.62047849212e-10
2.42789012877e-10
-8.829717868e-12
-1.40374060372e-09
-2.11261444972e-09
2.20712773041e-09
1.67221164901e-09
1.4536093654e-09
2.1799301868e-09
-1.46683607868e-09
-2.10174916912e-09
1.08000420426e-08
-8.61273608415e-09
-7.40799034029e-10
-1.24656689689e-10
1.31898098639e-09
7.57589829872e-09
-2.26142035046e-09
-7.70149496238e-09
2.61435641513e-09
-9.89846455142e-09
1.73736435112e-08
7.00309934862e-09
-4.36880525406e-09
-2.94353215224e-09
-3.10768737734e-09
-4.49592353516e-09
-1.53060994842e-09
8.38010322373e-09
1.92533731105e-09
1.96472970663e-10
1.75522452853e-10
-2.29854860728e-10
-6.17409272876e-10
-3.78654302432e-08
-1.29631305236e-09
1.7179406146e-09
-4.89812180479e-10
1.4956798232e-09
3.38102810923e-10
-1.04943783197e-08
-9.23037212049e-09
-4.08978943916e-08
8.90892828058e-09
1.93459384085e-09
1.55918573523e-10
-5.32094903227e-11
1.96910790169e-09
6.48803308679e-10
-1.15026687782e-09
5.47519151441e-10
1.4352370834e-09
-7.21878961125e-10
7.46604573425e-11
-4.15876032037e-08
1.53569604773e-09
1.46585995801e-10
1.90268945685e-10
2.23499561446e-10
1.27809970102e-09
-8.8348412109e-09
-7.13461615592e-09
8.43373579085e-09
-1.21094372247e-09
-3.78842168473e-10
-7.7543800934e-10
-1.21598238321e-09
1.13252418012e-09
4.91725730078e-10
-2.89146501014e-09
-1.75143095147e-10
7.70383291307e-10
2.52787755168e-09
-6.99524290249e-10
3.85790989466e-08
-4.33692739957e-10
-3.63747921015e-08
1.3449137406e-10
-8.20935731308e-09
4.37817524502e-10
-2.53622243418e-10
-3.10902739023e-10
3.56878309536e-10
-1.43233199449e-09
-9.31610029392e-10
-6.35298817751e-10
-4.5290141343e-10
-3.05757061095e-10
2.67487904109e-10
-8.4563042977e-09
-2.16738150423e-08
6.43433330783e-09
4.9148237469e-09
9.74161108325e-10
9.60949673367e-10
1.129972971e-09
7.82861843456e-10
-1.38180076743e-10
-1.22968216596e-10
-7.44193452873e-11
5.42328817642e-09
6.34183570805e-09
-1.08668374064e-10
-5.27940871251e-09
7.14075026411e-12
-6.54484870443e-10
-1.565170372e-10
6.68036319482e-10
4.71881707792e-10
-3.0212057937e-10
-3.33041101522e-08
3.51811007857e-08
-9.19166631858e-10
2.1813078266e-10
-4.30500367101e-11
-4.52831019952e-10
-1.5631443425e-09
1.30728670575e-09
-4.567092314e-10
6.89924664607e-12
9.38985147609e-10
3.51508478538e-10
-2.22550695929e-09
5.74019815002e-09
-2.96763662899e-08
-6.14342533427e-09
-1.03423397243e-09
-5.91808544339e-10
-1.09831728706e-09
-9.17970170159e-10
2.08463406452e-11
-3.13071356545e-08
-8.45914025465e-10
-1.05585460588e-09
-1.29389359276e-10
-1.2750049123e-09
5.68594673914e-11
1.06386454069e-10
2.51123483225e-10
-2.39944990487e-10
2.54601758568e-11
-7.77318224188e-11
-3.7465667052e-09
-5.88559008652e-10
-1.78641113316e-10
4.62271228678e-10
3.22828759397e-09
7.32631429214e-10
2.26242807758e-10
-1.72896741824e-10
-1.34625244484e-10
4.66299466787e-10
-5.61466175887e-10
-2.03053059386e-10
-1.39962252975e-10
1.49098675229e-09
6.2311167139e-10
-1.82731976446e-09
-1.75259787277e-10
3.27624411988e-10
1.2175862687e-10
4.48686324269e-10
-3.74979013035e-10
-6.43686445003e-12
-1.95690556619e-11
5.99243797171e-10
-1.85966832463e-10
-1.29228901512e-09
5.74605874805e-09
-1.24408914461e-09
-6.75163732573e-09
-2.32936383189e-10
2.759558128e-08
-7.47113608578e-10
-5.90720189882e-10
-9.02308238516e-10
-2.92358502728e-10
-2.44013745082e-08
-1.60860259714e-10
1.65263909364e-08
-3.02997307205e-09
-9.98612444354e-11
5.97008745339e-10
5.11034626046e-10
7.04707703154e-10
4.74255527284e-10
-1.56304978686e-08
-2.81868786759e-11
-1.44857380602e-10
-1.04795733906e-10
-9.02081482446e-10
-1.10685987413e-09
-1.0944015817e-09
-1.12861481114e-09
6.86665669894e-10
-3.40375374096e-09
-1.03079720724e-10
3.1793254167e-09
4.83087255638e-09
4.74327984526e-09
6.92912258265e-10
4.22706166839e-10
6.2833919377e-10
5.76887235564e-10
-1.1301148455e-10
-2.66413051945e-11
-9.25304692041e-11
-1.41250282912e-10
2.22786289386e-09
5.50324685186e-10
-3.50120493112e-10
-2.51315159615e-09
-1.01218188532e-09
-1.40288825227e-09
-7.40294797021e-09
-3.34984617069e-10
-7.15695158408e-10
1.53469237607e-09
-9.06984823218e-10
1.40544997345e-10
1.64245116715e-10
-4.72224665275e-10
-1.08017822457e-09
-1.45233951691e-09
-7.26917582118e-09
7.50689792534e-10
-8.14941660196e-10
1.92887490884e-09
-1.94046246753e-10
-1.32474902546e-09
8.20466017178e-09
-3.85265465961e-08
2.01377742379e-09
5.52865789615e-10
2.00186950671e-09
7.89864075653e-10
-1.05429679235e-09
-7.79316713368e-10
1.49191081254e-09
2.82756150496e-10
-2.23097435055e-10
-3.79169884021e-08
2.7048030222e-09
1.42190448538e-09
2.42358616631e-09
1.19827655111e-09
8.36524487566e-09
8.49096835511e-09
8.3278902825e-09
8.37935135665e-09
-3.24714686766e-09
2.11925742329e-10
-2.74132944074e-10
-5.6036334704e-11
-4.78306214894e-10
8.23344283129e-09
1.8022034014e-11
2.72739963348e-10
-6.71629500557e-10
5.14769022194e-10
-2.61958723919e-10
3.54532182545e-08
6.80936981599e-09
3.88448148748e-10
8.10260839675e-10
4.70903747249e-10
3.23660974473e-10
-1.00581942271e-09
-2.45465082316e-10
6.41820051548e-10
1.36712359211e-09
1.3793904775e-10
2.75319402594e-10
-1.4925689005e-10
-5.72865895968e-10
1.50059806573e-10
1.73167469658e-10
3.12039819634e-10
6.75411673499e-11
-7.60419617578e-10
1.21049603536e-10
4.83190565005e-10
-2.96071990416e-10
-1.03363131675e-10
-5.34900245771e-11
-4.60433213574e-10
4.15069877144e-10
3.79273263466e-11
5.24085924139e-10
-3.2911683428e-11
1.84400780582e-08
3.42854937074e-09
5.7218681362e-10
-1.81282421397e-08
-1.70892897212e-11
-5.3565940931e-11
-1.86602124225e-10
-5.71121131547e-11
-3.90155523641e-09
-1.71307165019e-10
8.65850614621e-10
-6.54200810235e-10
-3.36163776507e-09
2.36148514532e-09
-3.36472756747e-08
-3.37697587641e-09
-9.41303153892e-09
-7.58516107806e-11
-7.08067679446e-09
-2.96243838066e-08
-1.53254119576e-09
1.17059259279e-09
9.13455582259e-10
1.0659526592e-09
8.83195108895e-10
-4.42781001702e-11
3.78601547968e-11
9.10984968474e-11
2.67739879443e-10
-5.49649708264e-09
-1.80610213723e-08
-1.18584099032e-10
5.58949140603e-10
8.01199867025e-10
7.25190619531e-10
5.32501150244e-09
3.94360585044e-09
5.48273353332e-09
4.37714743515e-09
-6.16166112136e-11
-1.41920886106e-10
-1.25099116104e-10
-2.9996975887e-08
-2.16550088211e-09
-7.90742130367e-09
4.3266174343e-09
9.18508537883e-12
-1.81550204733e-08
-7.0069646096e-11
-1.20430760665e-11
-4.03215134065e-10
-2.15816326119e-10
-3.75217341953e-09
9.40376426597e-10
-7.9640861675e-09
-2.02798402865e-09
1.64729681437e-08
-3.01014701059e-09
-4.01843221527e-11
-1.61570173478e-08
1.32343342179e-10
-2.21271353486e-10
2.09470266933e-11
-4.07475466085e-11
1.22761953206e-11
1.06552356527e-10
1.76335494653e-10
-2.84542482378e-08
-2.00377785205e-09
-7.57180794094e-09
-3.24729227685e-10
-1.68297335683e-08
-3.70065506065e-10
-2.75068755997e-10
6.08351743843e-10
-3.61420940234e-10
-3.52925848176e-09
8.10781333389e-09
-8.62877231606e-09
2.05623939015e-09
-2.33053714788e-10
-2.46476023796e-10
-2.50100177147e-10
-2.25237862354e-10
-2.23108522279e-09
2.66001315761e-10
3.74146469725e-10
-3.18319971135e-10
6.75410378244e-11
-3.94372285804e-10
2.11855978555e-09
7.56454834996e-09
-1.94564815364e-10
-1.61361547711e-10
-1.67004148109e-10
-1.85541855241e-10
-2.38205003249e-09
-6.38664639557e-10
2.75707728345e-10
-7.85613412098e-11
1.75553703926e-10
-2.82601526667e-10
5.35401090284e-10
-8.65119715638e-09
1.87331791557e-09
-2.02121553803e-09
8.26391991257e-09
-2.49638525242e-10
-2.45947602723e-10
-2.65654058611e-10
-2.28349270573e-10
-1.8546327364e-09
8.26489601402e-09
1.69765105986e-09
-2.3348455652e-10
-2.29291017384e-10
-2.47308524949e-10
-2.15320849994e-10
-8.57250695007e-09
-2.73152787976e-10
-7.97211638879e-11
-9.00823216266e-10
2.49375809328e-10
2.07818444649e-10
7.87668151578e-10
2.09159213215e-10
1.26216131439e-10
-2.54070386175e-10
-1.63401653863e-10
8.25850629187e-11
-1.95823899691e-09
-8.93618143662e-09
-2.65896707781e-10
-2.79189967318e-10
-2.74071463224e-10
-2.73349497437e-10
-2.7055734292e-10
4.57393391733e-10
1.67366754738e-10
-5.74254909737e-10
2.3779967511e-10
7.85101029733e-09
1.6559866968e-09
-2.14613723308e-10
-1.831412278e-10
-1.96397192491e-10
-1.98245984066e-10
-8.99161474165e-09
-2.7802716818e-10
-2.65609422129e-10
-2.67646828597e-10
-2.76925994921e-10
-2.17483915627e-09
-7.40298729924e-11
-1.00916511395e-09
-3.03910526946e-10
2.0308636678e-10
9.07377072537e-10
-9.27529567289e-09
-2.7464795069e-10
-2.82693217173e-10
-2.7897218346e-10
-2.7793639182e-10
-2.09149320453e-09
-7.86355016471e-11
1.85237673437e-10
-2.84882079687e-10
-7.38329543365e-10
7.72922738772e-09
1.85633906513e-09
-1.78445378783e-10
-2.14836445739e-10
-1.94314020288e-10
-1.97262781438e-10
1.54147935913e-09
2.92587749361e-10
2.26249238351e-10
5.02767215402e-11
-2.93596734689e-10
-1.86767879895e-09
-7.32951648582e-09
4.28617410683e-10
-1.22601358146e-10
-9.26650546844e-11
-1.00900029011e-10
-1.14616663055e-10
6.75164908265e-09
3.7754205163e-10
4.18129751051e-10
3.72541507973e-10
1.28170462877e-09
1.12044790457e-10
1.76490776113e-10
-1.48068088146e-10
6.91951579501e-11
7.1434224162e-09
-1.44274411927e-10
-1.34884032859e-10
-1.21738914804e-10
-1.58145198104e-10
1.40087230614e-09
1.32952193074e-10
3.85603517342e-10
2.26594497618e-10
1.61368585688e-09
-1.52452866726e-10
-1.58124673748e-10
-1.68833834754e-10
-1.4410277262e-10
1.41987026517e-09
-4.50750890252e-10
1.14829443581e-09
9.18251142893e-11
4.33575490638e-10
3.94804941773e-11
-1.25710173906e-09
-1.25846865016e-09
3.03424333662e-09
2.6059972841e-10
-2.20608638606e-09
4.61978391083e-11
-1.48351475198e-09
1.32111964073e-10
3.0928716261e-10
-1.14150828626e-11
1.39924968922e-09
-3.38959099061e-10
1.11410178396e-09
2.5936639014e-11
3.23005288848e-10
-3.68061897884e-10
1.16320636369e-10
-1.19177392322e-09
-8.77890429678e-10
1.2099288732e-09
-1.86363503711e-10
-3.85974710564e-10
-1.58084675036e-09
2.03577137863e-10
1.48263907499e-09
-9.80555466996e-11
3.76726403449e-10
1.17122570563e-09
1.24787649858e-10
-4.64804382719e-10
1.56429510357e-11
-1.28965421168e-09
8.85950280448e-10
-2.70514950427e-10
-4.73410693429e-10
-1.68884965273e-10
2.27894473529e-10
-1.77333821959e-09
-4.58302289672e-10
2.66031258532e-10
-1.5061626975e-10
1.69436576192e-09
4.28178785062e-10
1.28242171795e-09
-5.02565668602e-10
1.44187872028e-10
4.95013057402e-10
2.09872383183e-11
-1.46668896871e-09
-1.62383605608e-09
2.34460310215e-10
1.52440632401e-09
-1.22551379179e-10
-3.92975308798e-10
-2.92404839214e-10
1.51826552457e-10
1.44283678167e-09
-4.70106355161e-11
2.5977038903e-10
-1.50997853421e-09
-1.68634314856e-09
-2.70852802186e-10
2.3682429819e-10
2.42899429778e-10
-1.5184065723e-10
1.6286661166e-09
-3.09421769321e-10
2.83531698637e-10
-1.87697166167e-09
-2.10547575291e-10
2.83894784628e-10
1.83862205719e-09
-2.76578339063e-10
2.53594971618e-10
2.49393769634e-10
-1.70448798783e-10
-1.74091427309e-09
-1.8773906616e-09
-3.35013085587e-10
3.04043766208e-10
1.81160775905e-09
-2.27854008112e-10
3.3050623592e-10
1.79675233704e-10
-6.84528963539e-11
-3.21885584446e-10
-1.55433228045e-09
-3.69568125267e-10
2.40539864028e-10
-1.66753439812e-09
-1.41548047177e-10
3.60987223331e-10
-1.74053468623e-09
2.5824496873e-10
-2.97022891513e-10
-1.66892965038e-10
1.68039871872e-09
-7.47607431197e-09
-1.45791910036e-09
3.54209867662e-10
1.8651739222e-09
-1.55438003591e-10
-1.51819079843e-10
-1.54813259051e-10
-1.48962676402e-10
3.5027009479e-10
3.20353547871e-10
3.12160022407e-10
1.89481265841e-09
1.55584786337e-09
1.59933660786e-09
1.23808536966e-09
1.49192958816e-09
7.91129597164e-09
-1.7956724375e-10
-2.00468460915e-10
-1.90199867559e-10
-1.8827828143e-10
-8.26294769501e-09
1.3315140123e-09
6.01530804732e-11
-2.19268375448e-10
-8.51793283837e-11
9.87806559712e-11
1.38882742618e-10
1.548287099e-10
-1.9483257597e-10
7.35021638771e-11
9.34410145971e-11
1.3415138269e-09
-7.84489997993e-09
-1.65358535477e-10
-1.72997319869e-10
-1.74537856805e-10
-1.6443712467e-10
1.24740839571e-09
7.43962944148e-09
-1.66530323351e-10
-1.60886149671e-10
-1.73094740265e-10
-1.5723255732e-10
1.31659144076e-09
2.83166275034e-11
-4.3572176553e-11
8.38321921551e-11
-2.01191554111e-11
-3.95829321826e-11
3.05495005553e-10
-1.93899690601e-09
-2.35157122368e-10
3.45020337077e-10
-1.52284199381e-10
3.74162996651e-11
9.68498269914e-11
7.36383225686e-11
-1.93137429138e-09
2.97742448288e-10
-2.24396803387e-10
-3.39083519575e-10
1.89704814704e-09
-7.47334169544e-09
-1.55854260588e-10
-1.67329374701e-10
-1.6455476015e-10
-1.60167956934e-10
1.17389031863e-09
1.55681321323e-09
1.92434436468e-09
1.60590231021e-09
1.89200028696e-09
2.9871709584e-10
3.46361312103e-10
2.94150321437e-10
3.4029829755e-10
7.41452259608e-11
7.58449148385e-11
2.72257011402e-10
-3.01541861683e-10
-1.85182587577e-10
-1.79761614113e-09
3.17915248922e-10
-3.55284148699e-10
1.85357164897e-09
-2.37562628347e-10
2.93880367453e-10
-1.9118590476e-10
-1.85063709634e-09
4.08047828919e-10
1.25299407753e-10
6.29409432646e-11
7.96794586748e-11
-1.32757922197e-10
-1.41919872286e-10
-1.3130395049e-10
-1.38897699758e-10
1.30091573056e-09
3.39130209843e-10
3.7470944386e-10
3.81548960805e-10
3.3442532643e-10
1.55522165732e-09
1.86194519555e-09
1.59772258129e-09
1.83008566601e-09
2.67848740438e-10
-1.70882013727e-09
-1.6538716468e-10
-3.77578789386e-10
6.23934082316e-11
-1.00003864141e-10
-4.46518030752e-11
-1.87377064573e-09
2.99776763008e-09
1.92072600586e-09
-4.80393903671e-11
-3.20230623689e-09
1.77838251179e-10
-6.41737648781e-09
5.86277769259e-09
3.78648523161e-11
-2.13929752201e-08
-2.85915492447e-09
-5.83417364458e-09
1.54246169742e-08
5.50883566897e-09
2.51383457167e-09
-1.23749575737e-08
-5.14122494068e-09
-2.51168981767e-09
3.17530607066e-09
2.65004986369e-09
-2.33564592812e-09
-1.29486062578e-09
3.39710065197e-09
-1.34569200586e-10
-1.85165143335e-09
1.08131519576e-10
-3.40837469747e-09
-4.54741533178e-10
-6.33249273316e-09
-2.15213755731e-08
-3.40520697006e-09
1.52253905562e-08
2.82827946103e-09
-6.04697107764e-09
-1.21549429356e-08
-5.62461515883e-09
2.96006137902e-09
-2.13207671715e-09
-1.81961615272e-09
-1.81422587146e-09
3.43877141938e-09
5.04835903018e-09
9.22636724986e-09
-5.95713170207e-09
-5.16588216219e-09
-6.47582705103e-09
-2.43047525859e-09
-1.96017632815e-09
4.51468761014e-10
-2.78222303997e-09
5.17113535385e-09
-8.66667838979e-10
2.27975912066e-09
1.69184929253e-09
-1.78893715011e-09
-1.59774774855e-09
1.56531466441e-08
1.48632954724e-08
6.05407726689e-09
-1.44388442655e-08
-1.80067160286e-08
1.58309132623e-08
6.02632914169e-09
-1.53121792039e-08
-5.32462194003e-08
3.16383845739e-08
5.50325680523e-08
1.57120077522e-09
-9.75924691841e-09
-1.59852646137e-09
1.14432161321e-08
4.67835525165e-09
-6.4003364975e-09
7.9988173265e-09
-3.78894015194e-08
-6.64307953948e-09
6.74908791923e-09
7.97173736647e-09
8.95340983216e-09
8.30327468924e-09
-1.5325885976e-08
-1.73383888593e-08
-1.79559542056e-08
-1.57394376433e-08
-9.63995402299e-09
1.74076057527e-09
1.11659536844e-08
4.85131756497e-09
-6.61796727872e-09
6.70720888436e-08
-3.82925311694e-08
9.20641137342e-09
6.63516559933e-09
9.06667551673e-09
6.44140195476e-09
8.97057634113e-09
-1.48845620823e-08
-1.50394097383e-08
-1.55956459911e-08
-1.58489540983e-08
3.65840155614e-08
-1.93284976871e-08
-3.31665933638e-08
1.28433126053e-08
-4.99269263276e-08
5.81485684736e-08
8.20042950773e-09
-6.2175285123e-08
5.39772926015e-08
-4.55419471768e-08
9.72121683386e-09
6.88755330334e-08
9.62610974311e-09
9.37454306218e-09
1.07238791569e-08
1.0957584528e-08
-8.1746258458e-10
3.43694924614e-09
-2.82171400252e-09
7.31756260853e-10
-9.46655647133e-10
5.40445476842e-08
-2.46000453434e-09
-4.7807618334e-08
4.50149676542e-09
4.80220457207e-09
-2.93085584212e-09
-3.32179082439e-09
-3.38417985241e-09
-2.54806528629e-08
-3.48996572147e-09
5.71012209914e-08
6.1690155436e-09
5.69818682751e-09
-2.72493142245e-08
-2.91375767056e-09
-3.24888728756e-09
-3.32422994871e-09
-1.35708860579e-10
-1.12959064582e-09
1.20510711602e-09
2.50998268847e-10
-2.23721244402e-10
-5.50735664002e-08
1.23662578604e-08
2.99427810604e-08
5.74225510454e-08
-1.12647343355e-08
8.28981370128e-09
5.94661892473e-08
-6.73614236936e-09
-3.82042728107e-08
-6.08966072581e-08
-5.39494517784e-08
-1.43570877749e-08
3.12066869956e-08
5.60784331434e-08
5.82631224931e-08
1.01557930178e-08
-3.80909278686e-08
-6.06258505532e-08
1.34231409049e-09
-5.93453809708e-09
-1.33033119315e-09
3.97381304283e-09
-7.78084901335e-09
2.21316639918e-09
-6.89847736532e-09
8.13927829232e-09
2.19675483492e-09
-1.86966853822e-09
-3.8028539007e-09
-1.79787162609e-09
1.79794994663e-09
-2.72105459568e-10
2.7555094626e-09
5.83226126584e-10
7.91816247692e-09
-1.85477472545e-09
2.09537306293e-09
2.37454131918e-09
-6.99934293407e-09
-3.54174490413e-09
1.33750776326e-09
4.15231416732e-09
-7.50115888765e-09
-6.28177299439e-09
8.90585809629e-09
2.19547502045e-09
2.75735409359e-09
-3.78753334212e-09
-1.86911133185e-09
-2.94416148965e-12
3.39212188219e-09
9.0278421163e-11
1.35539442882e-09
-1.5974127064e-09
-5.22633846412e-09
-3.15253797024e-09
1.52270988029e-09
1.22561021616e-08
-6.2094818191e-09
-1.25339477302e-08
-1.45068376424e-09
6.49030116203e-09
2.98412848161e-09
-2.44515727998e-09
-6.52644175413e-10
-7.31027836272e-10
-9.1689043572e-09
-6.49638923107e-09
-1.5644412112e-09
1.06262189546e-08
4.06315458405e-09
1.17233231963e-08
-6.27011669548e-09
-1.20773429357e-08
1.59368630711e-09
6.618826779e-09
1.46638966923e-08
-6.23338056324e-09
5.02110344448e-09
-1.35604962609e-08
-3.23132335103e-09
-9.4150938308e-10
1.01692047336e-09
4.25010645832e-12
-2.24193359626e-10
6.25169741585e-10
-1.79070774713e-10
-4.43029254159e-10
7.29341708412e-10
-8.2069080908e-10
3.65649442379e-09
-1.05498007501e-09
-7.5793049017e-10
2.07350926193e-08
-9.77350601311e-09
1.60818540962e-09
-5.46506444727e-09
-4.47872181704e-09
-4.58469841247e-09
-5.41908838879e-09
-8.80828346711e-10
-7.20044445356e-09
1.21183014573e-08
2.48540658968e-09
5.1066343847e-09
-5.97266641349e-08
1.38378822875e-08
6.49960819087e-08
9.18711148482e-09
5.67155151877e-09
6.24208455582e-09
7.43733623402e-09
-3.82155782593e-08
8.94146305243e-09
7.8451356052e-09
7.29428083864e-09
6.99529273241e-09
8.04137468643e-09
-3.19608072111e-08
-1.3918496831e-08
-1.39019500623e-08
-1.50631711526e-08
-1.8635503186e-09
-2.62702294754e-09
-2.59786141934e-09
-2.60783071144e-09
2.33326801251e-10
-2.88640938666e-10
1.23864969543e-09
-6.46856090842e-10
3.43982683305e-09
1.91001480236e-08
-2.16146033562e-08
-2.59866423617e-09
-8.06295861283e-09
-2.07912488631e-08
-2.68831905779e-08
2.84632285087e-08
8.17035692737e-09
-5.04203746747e-11
1.48185940749e-11
9.60169618741e-11
-2.259101452e-09
-4.32079746172e-09
-2.538443477e-09
1.34098665819e-09
5.13285579146e-09
6.80949072351e-09
-2.82010561362e-09
-1.95959701709e-09
1.10190581278e-09
-6.36134542114e-09
-2.10105002005e-11
-1.57097673287e-11
2.55089544102e-13
-4.48755604398e-08
-2.42121219735e-09
3.65789050342e-09
6.77897311408e-09
-3.10456032106e-09
-1.74866311563e-09
-1.08759670436e-09
-2.78023605188e-08
-1.46320661901e-10
2.22032878397e-10
-1.71036661131e-10
-9.80119973324e-10
-3.52166936092e-10
-1.18901686049e-09
2.18384693538e-09
-1.04352125966e-09
-4.38523935556e-09
-1.25171184572e-08
3.57167558904e-09
6.64317580934e-09
-2.53457590258e-09
-2.75235360827e-09
-1.05688852314e-09
-8.961875165e-09
-1.24909210369e-08
-2.28536435444e-08
2.01765911786e-08
-9.82670301799e-09
1.9242482146e-10
-4.3032436736e-09
-5.34806237154e-09
-5.30078458733e-09
-4.13618460807e-09
-7.59469064987e-09
1.22487390266e-08
-9.44627897977e-10
7.55184138883e-09
7.37203325393e-08
-3.83511958533e-08
-1.81795673243e-08
-1.58995819048e-08
8.49111490099e-09
6.90030941605e-09
-1.84539231875e-08
6.67225846102e-09
-4.26875440498e-09
-1.59607660461e-08
8.79459774733e-09
7.51093202448e-10
-5.09364772631e-10
7.12148515102e-10
3.82107563162e-09
-1.17253440518e-09
-5.66561726115e-08
6.70370601504e-08
7.14277977861e-09
5.76855812379e-09
-3.78747462358e-08
7.65696105003e-09
8.3293266859e-09
-3.32696735555e-08
1.83306669863e-08
-2.17917316905e-08
-6.94889109425e-09
1.61258172662e-08
5.36293135546e-08
-1.50070352464e-08
-5.31149420626e-08
2.50448062039e-08
5.10403000971e-08
1.67713143014e-08
-4.84328097211e-08
1.89277308076e-08
-1.61665720188e-08
-1.90491277445e-08
3.98356037908e-08
1.30997005387e-08
3.74547606e-08
-1.94247240862e-08
-3.42808995411e-08
1.3824789462e-08
3.99673260683e-08
-1.86756225717e-08
1.51137762226e-08
5.28151308858e-08
1.69122144306e-08
-5.26362927883e-08
2.60069398926e-08
-2.05170427127e-08
-4.67429310472e-08
1.97882493719e-08
5.02442297813e-08
5.04152780779e-08
-1.94648316139e-08
-4.61988567539e-08
1.74693716002e-08
3.67146447364e-08
1.72963428107e-08
-3.31225905472e-08
8.90134186855e-09
-1.57093965986e-08
4.06914380137e-08
1.82354972628e-08
8.12157228678e-09
-1.61232383531e-08
-1.94010554834e-08
-4.45629375369e-09
1.1647835048e-09
1.20615578597e-09
1.25503276664e-09
1.10810001259e-09
2.05285127558e-08
-1.69364788244e-09
-4.46199334962e-10
1.94834838665e-09
6.06018148318e-10
-4.32991930443e-10
-1.8089530411e-08
-4.151225171e-09
9.9982284354e-10
8.98114727945e-10
9.23752005348e-10
9.61256206473e-10
-3.52217743278e-10
-1.49798174743e-09
5.09231234952e-10
-3.59080267351e-10
1.67028695868e-08
-3.92687271786e-09
6.4530702373e-10
5.92116246483e-10
5.96214971191e-10
6.40960984201e-10
-1.5288419942e-08
-4.12413478489e-09
7.3293884089e-10
7.66722282688e-10
7.80975313894e-10
7.25040214343e-10
-1.04028011e-08
2.91959224947e-09
-2.55781941063e-09
1.11207470169e-08
-2.79409492054e-09
1.76669796798e-09
3.17676036219e-09
-2.20962577959e-09
-9.88395044757e-09
-2.76091189684e-09
1.29378821509e-09
8.49644356663e-11
-1.74368781589e-10
1.19182711067e-10
-1.320760658e-10
-9.09829795934e-11
-3.77091970392e-11
-7.44254107563e-11
-3.70587238668e-09
9.1102497137e-09
-7.66225916335e-10
4.25144492494e-09
-8.26783816037e-09
-5.79412846244e-10
-3.00678525844e-09
-1.89695384358e-09
9.08313272918e-10
7.35088868485e-09
1.39423916655e-11
-4.33633405916e-12
2.88681592685e-11
-3.78207912965e-09
-2.01028215815e-09
-1.9161162334e-09
1.07296840368e-09
4.37343873081e-09
3.70829835656e-09
-1.6647681091e-09
-1.18676084787e-09
-2.93215425118e-09
1.43877308219e-09
5.77124607246e-10
-6.51504980949e-11
-2.84765193705e-10
2.3445648916e-10
7.81556936299e-11
6.43028303042e-09
-2.46091216405e-09
1.4804028832e-09
-5.84314802542e-09
-2.38178915908e-09
2.96233225436e-10
-1.1082223426e-10
8.6367469068e-11
-3.03015463204e-10
-1.31563735313e-10
8.069772688e-11
-5.10905307151e-11
-5.01281355615e-11
-8.72012648232e-11
1.00141978006e-10
-8.07835879735e-11
1.17589834381e-10
-1.21821409153e-10
8.81880862309e-09
-1.38242937603e-09
-3.33992871531e-09
-8.24358248248e-09
4.54569676232e-10
-1.79672778571e-09
-2.16898328889e-09
4.8667140261e-09
1.84356997861e-09
9.59659310535e-10
-2.60759727848e-09
1.47121725478e-09
7.16061190891e-09
-2.60008791444e-09
-1.18003238232e-10
7.18008843532e-11
2.44173114802e-10
-6.08138327479e-09
-1.1307186686e-09
3.48920055427e-09
-7.84552317036e-09
-7.76806036883e-11
-1.65072953953e-10
-7.87688217125e-10
-4.10134807974e-10
1.39255506461e-09
-1.22097118003e-09
-1.05073358204e-08
-2.27795429419e-09
1.09578753973e-08
3.32482404304e-09
1.45881662222e-09
-1.23833939487e-08
-4.06355376051e-09
1.3226352463e-08
3.39619070564e-09
-4.53324913821e-09
-1.89301802174e-10
-4.09916808435e-10
-1.21102186431e-09
-3.75354853523e-09
-1.74330709127e-09
4.14782172876e-09