/*--------------------------------*- C++ -*----------------------------------*\
| =========                 |                                                 |
| \\      /  F ield         | OpenFOAM: The Open Source CFD Toolbox           |
|  \\    /   O peration     | Version:  2406                                  |
|   \\  /    A nd           | Website:  www.openfoam.com                      |
|    \\/     M anipulation  |                                                 |
\*---------------------------------------------------------------------------*/
FoamFile
{
    version     2.0;
    format      ascii;
    arch        "LSB;label=32;scalar=64";
    class       pointVectorField;
    location    "0.01";
    object      pointDisplacement;
}
// * * * * * * * * * * * * * * * * * * * * * * * * * * * * * * * * * * * * * //

dimensions      [0 1 0 0 0 0 0];

internalField   nonuniform List<vector> 
46279
(
(-0.00159108197925 -1.2650571792e-05 -1.73472347598e-17)
(-0.000796025428997 -0.000272411488714 8.67361737988e-19)
(-0.00106135915011 -0.000274342125303 1.30104260698e-18)
(-0.000197753439213 -0.000201081139251 0)
(-0.000264320008175 -0.000201616007612 0)
(-0.000131146470369 -0.000200504415318 0)
(-0.000197731370205 -0.000201044222346 0)
(-0.000264332633617 -0.000201635277481 0)
(2.6657965233e-05 -0.000174009587719 0)
(2.67227917558e-05 -0.000190765995656 0)
(3.50603402161e-05 -0.000182263432921 0)
(3.49887850175e-05 -0.000173984581563 0)
(3.50645442385e-05 -0.000190689784771 0)
(2.66960201361e-05 -0.000182394136303 0)
(-0.000531143312219 -0.00013728942353 8.67361737988e-19)
(-0.000398003647766 -0.000136201608545 1.30104260698e-18)
(-6.4455733675e-05 -0.00018323559079 0)
(-0.000131411374874 -0.00016725785127 0)
(-9.78054711924e-05 -0.000200202974365 0)
(-4.79325207417e-05 -0.000182934291897 0)
(-4.79677474456e-05 -0.000174723839399 0)
(-4.76833484524e-05 -0.000191071151735 0)
(-3.95444444821e-05 -0.00017431790884 0)
(-3.94170898562e-05 -0.000190862958046 0)
(-6.43552792787e-05 -0.000191472678432 0)
(-8.1087387114e-05 -0.000200019925445 0)
(-9.79348696627e-05 -0.000183602031816 0)
(-3.11753370599e-05 -0.000182466590097 0)
(-5.61143062617e-05 -0.000183098680577 0)
(-4.77882554268e-05 -0.000182776592571 0)
(-4.78434685245e-05 -0.000187003804338 0)
(-3.12667500227e-05 -0.000174181507669 0)
(-3.11218764554e-05 -0.000190759962749 0)
(-8.12138915343e-05 -0.000183441323649 0)
(-5.59639573871e-05 -0.000191282654879 0)
(-3.94747417591e-05 -0.000182564826613 0)
(-4.78317049957e-05 -0.000174556621235 0)
(-4.76962479322e-05 -0.000191036111546 0)
(-2.30286129061e-05 -0.000174152449521 0)
(-6.32478506426e-06 -0.0001906944918 0)
(-2.28620030677e-05 -0.000190732328411 0)
(-6.52133225336e-06 -0.000174148397822 0)
(1.03992991144e-05 -0.000190466667225 0)
(1.00170031506e-05 -0.000174166461953 0)
(-6.45414672377e-05 -0.000175001580409 0)
(-4.75940798658e-05 -0.000195207754048 0)
(-4.7947386502e-05 -0.000178813069512 0)
(-3.13625007763e-05 -0.000174273325324 0)
(1.84781670919e-06 -0.000182420080013 0)
(-1.46874922323e-05 -0.000182437134929 0)
(-3.96321698608e-05 -0.000174374519177 0)
(-3.54031563663e-05 -0.000174235311987 0)
(1.83676468437e-05 -0.000182465448071 0)
(-3.55084017172e-05 -0.00017433838741 0)
(-2.29453273814e-05 -0.000182459960731 0)
(-1.47849112106e-05 -0.000174160087567 0)
(-1.46244033299e-05 -0.000190755989384 0)
(-6.39422496149e-06 -0.000182380480328 0)
(2.03798074373e-06 -0.000190570190508 0)
(1.74638871218e-06 -0.000174123895643 0)
(1.01080550579e-05 -0.000182456339522 0)
(1.85086991264e-05 -0.000190665470816 0)
(1.83531812026e-05 -0.0001740743214 0)
(-5.61654295895e-05 -0.000174897939561 0)
(3.50104249224e-05 -0.000181453940147 0)
(3.43827770395e-05 -0.000183291192867 0)
(2.58726831515e-05 -0.000175210729282 0)
(3.50847582618e-05 -0.000173980620178 0)
(3.4956256833e-05 -0.000190851988996 0)
(3.43557303175e-05 -0.000183364890168 0)
(2.66279601221e-05 -0.000182512888914 0)
(3.42398467652e-05 -0.000175056041903 0)
(3.45303078963e-05 -0.000191502345801 0)
(2.60798592732e-05 -0.000183309586491 0)
(3.41122767328e-05 -0.000175204023368 0)
(2.64889415025e-05 -0.000174167484793 0)
(3.4585563342e-05 -0.000191420436099 0)
(2.61163490456e-05 -0.000183258177634 0)
(2.59161250871e-05 -0.000175109744908 0)
(2.66198076494e-05 -0.000190912183333 0)
(2.63068742799e-05 -0.000191392311054 0)
(2.6212298286e-05 -0.000191551210926 0)
(-4.8179985049e-05 -0.000183551274748 0)
(-6.45214365024e-05 -0.000183389467792 0)
(-3.20938502101e-05 -0.000183826940274 0)
(-1.56091688949e-05 -0.000183861407135 0)
(-4.00318049511e-05 -0.00019163942123 0)
(1.71480549311e-06 -0.000182624014604 0)
(-4.79538957648e-05 -0.000191578097038 0)
(-4.84543194034e-05 -0.00018342407494 0)
(-4.81367319343e-05 -0.000175306649624 0)
(-4.02299738532e-05 -0.000183668285603 0)
(-3.18155459547e-05 -0.000183291179473 0)
(-3.21556418643e-05 -0.000175490503849 0)
(-3.1962739052e-05 -0.000191982314687 0)
(-3.17490899283e-05 -0.000191611604453 0)
(-4.01350125449e-05 -0.000183357627845 0)
(-4.82716705035e-05 -0.000175092075821 0)
(-4.02679088443e-05 -0.000175398750232 0)
(-4.83878633771e-05 -0.000191744499921 0)
(-4.00964672347e-05 -0.000191863576359 0)
(1.04617810017e-06 -0.000183621352218 0)
(-8.12505094012e-05 -0.000183516694814 0)
(-5.59773376079e-05 -0.000191367424957 0)
(-6.81491875878e-06 -0.000191450790912 0)
(-2.34974082838e-05 -0.000191638347791 0)
(-7.40449180789e-06 -0.00017537108759 0)
(-3.6008500884e-05 -0.000179164989827 0)
(-4.42613644741e-05 -0.000187550264586 0)
(-3.59420576156e-05 -0.00018748381749 0)
(1.77659388979e-05 -0.00018335043186 0)
(2.00383446236e-06 -0.000190604009038 0)
(1.59560341672e-06 -0.000174260880598 0)
(-5.62280965177e-05 -0.000183391917115 0)
(-4.81471961535e-05 -0.000187576508837 0)
(-4.83273842378e-05 -0.000183456606897 0)
(-4.42266072797e-05 -0.000183621933562 0)
(-9.78278086318e-05 -0.00020024628309 0)
(-6.44044975871e-05 -0.000191610449581 0)
(-6.44558495269e-05 -0.000183301085896 0)
(-3.19211220632e-05 -0.000196152843398 0)
(-4.82440017065e-05 -0.000183256263533 0)
(-2.39357795325e-05 -0.000183993406748 0)
(-3.61860282021e-05 -0.000183738221043 0)
(-3.18155459547e-05 -0.000183291179473 0)
(-3.21359341514e-05 -0.000179697948188 0)
(-3.20385013845e-05 -0.000187896721908 0)
(-1.55259277654e-05 -0.000192143359995 0)
(-1.53337408411e-05 -0.000183405540258 0)
(-1.56548592832e-05 -0.000175500880822 0)
(-7.25204276029e-06 -0.000183702007669 0)
(-4.01682341791e-05 -0.000179198214013 0)
(-4.02014558134e-05 -0.000175038800181 0)
(-3.59088232235e-05 -0.000191644828639 0)
(-4.01017781528e-05 -0.000187518638993 0)
(-4.4228130082e-05 -0.000191711275735 0)
(-4.00685565186e-05 -0.000191678052825 0)
(1.10563047815e-06 -0.00019202010667 0)
(1.13565140788e-06 -0.000183404986016 0)
(9.50889716144e-07 -0.000175361859448 0)
(-4.83878633771e-05 -0.000191744499921 0)
(-4.40212070861e-05 -0.000191698441088 0)
(-4.42330893984e-05 -0.000183390359574 0)
(-4.84210850113e-05 -0.000187585086089 0)
(-4.01350125449e-05 -0.000183357627845 0)
(-4.02548394372e-05 -0.000179595065659 0)
(-4.01791551839e-05 -0.000187750882772 0)
(-3.18487675889e-05 -0.000179131765641 0)
(-3.17823115626e-05 -0.000187452190622 0)
(-3.59752792498e-05 -0.000183324403659 0)
(-3.18819892231e-05 -0.00017497235181 0)
(-3.62359874669e-05 -0.000175443223005 0)
(-4.0038404516e-05 -0.000196053142744 0)
(-3.17490899283e-05 -0.000191611604453 0)
(-3.60587383626e-05 -0.000191935158872 0)
(-5.60447336946e-05 -0.000191529302579 0)
(-7.27829054846e-06 -0.000192171733055 0)
(-8.11197432564e-05 -0.000200088872896 0)
(-9.79587916613e-05 -0.000183646950617 0)
(-6.43354603036e-05 -0.000191514053031 0)
(-5.61928452946e-05 -0.000183265439456 0)
(-4.84210977692e-05 -0.000187583488772 0)
(-4.41872632627e-05 -0.000187667881742 0)
(-3.6028877731e-05 -0.000196113768576 0)
(-3.61246927556e-05 -0.000187817539375 0)
(-3.62343039219e-05 -0.000179654006144 0)
(-2.35791153706e-05 -0.000183308460108 0)
(-2.39504431792e-05 -0.000175597489402 0)
(-1.54177229609e-05 -0.000175110813965 0)
(-3.18487675889e-05 -0.000179131765641 0)
(-2.38381487601e-05 -0.000192196971143 0)
(-1.52051098736e-05 -0.000191650389947 0)
(-6.98513545566e-06 -0.000183297326258 0)
(1.37706857809e-06 -0.000191553089728 0)
(-7.39444602293e-06 -0.000175474839591 0)
(-3.17823243205e-05 -0.000187450593305 0)
(1.10599572374e-06 -0.000175103436136 0)
(-4.01682341791e-05 -0.000179198214013 0)
(-4.42945861083e-05 -0.000183390850755 0)
(-3.60082712414e-05 -0.000179193741536 0)
(-3.60417225182e-05 -0.000175005575995 0)
(-3.59752792498e-05 -0.000183324403659 0)
(-4.4228130082e-05 -0.000191711275735 0)
(-4.42247598804e-05 -0.000187513231584 0)
(-4.01017781528e-05 -0.000187518638993 0)
(-3.59048140951e-05 -0.000187446779385 0)
(-3.59088232235e-05 -0.000191644828639 0)
(1.82262817002e-05 -0.000182666254547 0)
(-5.62190122013e-05 -0.000175069291367 0)
(-4.4156206396e-05 -0.000179356262431 0)
(-2.78059370305e-05 -0.00017946208929 0)
(-1.97226396744e-05 -0.000179606789119 0)
(-1.14627343743e-05 -0.000187999150278 0)
(-2.98415281965e-06 -0.00018769820786 0)
(-2.76925938512e-05 -0.000187572877885 0)
(-1.96570588541e-05 -0.000187917636576 0)
(-1.95005503535e-05 -0.000196072808138 0)
(-1.13864963717e-05 -0.000179484297883 0)
(-3.15970527723e-06 -0.000179600695489 0)
(-3.81049783487e-05 -0.000177101895004 0)
(-3.39120234194e-05 -0.00018122808465 0)
(-3.39452450536e-05 -0.000177068670818 0)
(-3.80717567145e-05 -0.000181261308836 0)
(-4.21648742515e-05 -0.000189614956726 0)
(-4.21981086436e-05 -0.000185453945577 0)
(-3.79720790539e-05 -0.000193741147648 0)
(-3.38123457588e-05 -0.000193707923462 0)
(-3.80053006881e-05 -0.000189581733816 0)
(-3.38788017851e-05 -0.000185387498482 0)
(-3.3845567393e-05 -0.00018954850963 0)
(-3.80385350803e-05 -0.000185420722667 0)
(9.60245783644e-06 -0.000191498574694 0)
(9.38139753829e-06 -0.000175005391333 0)
(1.95972187369e-06 -0.000194896626325 0)
(-4.81077015985e-05 -0.000179461304675 0)
(-6.46203895236e-05 -0.000175160355253 0)
(-4.77854446431e-05 -0.000195688508208 0)
(-2.79674518728e-05 -0.000183960113918 0)
(-1.97919872564e-05 -0.000183944335694 0)
(-1.5622455736e-05 -0.000188097868549 0)
(-1.55724999963e-05 -0.000183792425239 0)
(-1.56039518238e-05 -0.000179634594691 0)
(-1.14252865554e-05 -0.000183765690726 0)
(-4.01848449962e-05 -0.000177118507097 0)
(-3.7988689871e-05 -0.000191661440732 0)
(-4.00519457015e-05 -0.000193757759741 0)
(-4.00851673357e-05 -0.000189598345909 0)
(-4.21482634344e-05 -0.000191694663642 0)
(-4.00685565186e-05 -0.000191678052825 0)
(1.93328188805e-06 -0.00018644808821 0)
(1.58558376922e-06 -0.000178593161058 0)
(1.5468921709e-06 -0.000182896916981 0)
(9.97850985516e-06 -0.000182673025782 0)
(-4.81289310972e-05 -0.000179303329752 0)
(-4.81053275457e-05 -0.000175218540747 0)
(-4.41997743792e-05 -0.000175361465397 0)
(-3.18155459547e-05 -0.000183291179473 0)
(-3.18689210972e-05 -0.000181248506835 0)
(-3.17989351376e-05 -0.000185370886389 0)
(-3.38954126023e-05 -0.000183307791566 0)
(-2.76275529041e-05 -0.000183256132155 0)
(-4.81904354261e-05 -0.000174942867018 0)
(-2.80721470531e-05 -0.000175592071786 0)
(-4.79744577771e-05 -0.000195643692722 0)
(-2.7903638798e-05 -0.000192109636171 0)
(-1.54621264322e-05 -0.000196251412174 0)
(-3.1865378406e-05 -0.000177052058725 0)
(-2.75665149981e-05 -0.000191578197829 0)
(-3.38289565759e-05 -0.000191628216546 0)
(-3.17324791112e-05 -0.000193691311369 0)
(-3.17657007455e-05 -0.000189531897538 0)
(-3.17490899283e-05 -0.000191611604453 0)
(-4.0151623362e-05 -0.000181277920929 0)
(-4.01190268661e-05 -0.000185359066221 0)
(-4.22147194608e-05 -0.000183374238662 0)
(-4.01350125449e-05 -0.000183357627845 0)
(-3.80551458974e-05 -0.000183341015752 0)
(9.40976523837e-06 -0.00018347308308 0)
(-3.09396414145e-06 -0.000183657614766 0)
(1.10970270581e-06 -0.000187759757569 0)
(1.0574383926e-06 -0.000183558962938 0)
(9.69126856435e-07 -0.000179526185219 0)
(-2.37085103158e-05 -0.000179307958906 0)
(-2.38696296285e-05 -0.000175435504613 0)
(-1.95087323146e-05 -0.000175068410551 0)
(-7.31745427094e-06 -0.000192226358106 0)
(-1.09722309746e-05 -0.000191519138979 0)
(-6.96431553601e-06 -0.000187468021076 0)
(-2.80218602449e-06 -0.000191624807889 0)
(-2.35606278431e-05 -0.000187503134841 0)
(-2.36750014046e-05 -0.000191903340385 0)
(-1.93513103681e-05 -0.00019165794734 0)
(-1.1454661699e-05 -0.000175385865073 0)
(-7.09664615799e-06 -0.000179243967385 0)
(-7.45228850406e-06 -0.000175508847384 0)
(-3.08768063292e-06 -0.00017526632237 0)
(-3.39286342365e-05 -0.000179148377734 0)
(-3.80883675316e-05 -0.00017918160192 0)
(-3.6008500884e-05 -0.000179164989827 0)
(-3.60251117011e-05 -0.000177085282911 0)
(-3.59918900669e-05 -0.000181244696743 0)
(-4.42779752912e-05 -0.00018547055767 0)
(-4.42447408991e-05 -0.000189631568819 0)
(-4.42613517162e-05 -0.000187551861903 0)
(-4.21814850686e-05 -0.00018753524981 0)
(-3.58922124063e-05 -0.000193724535555 0)
(-3.3862190968e-05 -0.000187467205398 0)
(-3.59586684327e-05 -0.000185404110575 0)
(-3.80219115052e-05 -0.0001875020269 0)
(-3.59420448577e-05 -0.000187485414808 0)
(-3.59254340406e-05 -0.000189565121723 0)
(1.78425340545e-05 -0.000191720295848 0)
(1.78611155449e-05 -0.000183186734933 0)
(1.75932724937e-05 -0.000175152259038 0)
(1.70283329925e-06 -0.000191064872427 0)
(1.83618459517e-05 -0.000190839165002 0)
(1.3889688895e-06 -0.000174705016081 0)
(1.93350261424e-05 -0.000173103235631 0)
(-2.39473047011e-05 -0.00018391043301 0)
(-2.39518205679e-05 -0.000179845037626 0)
(-2.38552374912e-05 -0.000188037428456 0)
(-3.18321567718e-05 -0.000181211472557 0)
(-3.17989351376e-05 -0.000185370886389 0)
(-3.38954126023e-05 -0.000183307791566 0)
(-1.14165491615e-05 -0.000192177629596 0)
(-1.96593048123e-05 -0.000192136438195 0)
(-1.54337222313e-05 -0.000191987673894 0)
(-1.9376874045e-05 -0.000183257324797 0)
(-1.53306579505e-05 -0.000179191524212 0)
(-1.55730878771e-05 -0.000187758821407 0)
(-1.11473189734e-05 -0.000183325777756 0)
(-1.97948113616e-05 -0.000175530752175 0)
(-1.55907670461e-05 -0.00017538535474 0)
(-1.15431706908e-05 -0.000175514365526 0)
(-7.25738429853e-06 -0.000187919236594 0)
(-7.17654879104e-06 -0.000183580000845 0)
(-7.30683170034e-06 -0.000179568324802 0)
(-3.60251117011e-05 -0.000177085282911 0)
(-4.01682341791e-05 -0.000179198214013 0)
(-3.80883675316e-05 -0.00017918160192 0)
(-4.01848449962e-05 -0.000177118507097 0)
(-3.81215891658e-05 -0.000175022188088 0)
(-3.58937969656e-05 -0.00019372614563 0)
(-3.59254340406e-05 -0.000189565121723 0)
(-3.59088232235e-05 -0.000191644828639 0)
(-4.21814850686e-05 -0.00018753524981 0)
(-4.01017781528e-05 -0.000187518638993 0)
(-3.79447472988e-05 -0.00018742313705 0)
(-4.4228130082e-05 -0.000191711275735 0)
(-4.42447408991e-05 -0.000189631568819 0)
(-4.21482634344e-05 -0.000191694663642 0)
(-4.00851673357e-05 -0.000189598345909 0)
(-4.00519457015e-05 -0.000193757759741 0)
(-3.7988689871e-05 -0.000191661440732 0)
(-3.09425832909e-06 -0.000192096781896 0)
(1.1720472239e-06 -0.000191872613642 0)
(-2.86944433693e-06 -0.000183337935117 0)
(1.32048572722e-06 -0.000187429005703 0)
(1.02749576189e-06 -0.000179421886784 0)
(-3.22062739977e-06 -0.000175427126133 0)
(9.81833768296e-07 -0.000175297715533 0)
(-4.42945861083e-05 -0.000183390850755 0)
(-4.42262349738e-05 -0.000185468546997 0)
(-4.0151623362e-05 -0.000181277920929 0)
(-4.22147194608e-05 -0.000183374238662 0)
(-3.80551458974e-05 -0.000183341015752 0)
(-4.01184017278e-05 -0.00018543733476 0)
(-3.18487675889e-05 -0.000179131765641 0)
(-3.39286342365e-05 -0.000179148377734 0)
(-3.17823115626e-05 -0.000187452190622 0)
(-3.38621782101e-05 -0.000187468802715 0)
(-3.59918900669e-05 -0.000181244696743 0)
(-3.59752792498e-05 -0.000183324403659 0)
(-3.59586684327e-05 -0.000185404110575 0)
(-3.1865378406e-05 -0.000177052058725 0)
(-3.39618558707e-05 -0.000174988963902 0)
(-3.17324791112e-05 -0.000193691311369 0)
(-3.17657007455e-05 -0.000189531897538 0)
(-3.38289565759e-05 -0.000191628216546 0)
(-1.14558725472e-05 -0.0001880182645 0)
(-3.06528542147e-06 -0.000187828246816 0)
(-5.62924903357e-05 -0.000175189684672 0)
(-4.80101111272e-05 -0.000179399823287 0)
(-6.45547260006e-05 -0.00017508155726 0)
(-2.79289381515e-05 -0.000187982107444 0)
(-1.97282497128e-05 -0.000188044401288 0)
(-1.96726809589e-05 -0.000196361718388 0)
(-1.14528087766e-05 -0.000179591854602 0)
(-3.17305853932e-06 -0.000179576840858 0)
(-2.80156694089e-05 -0.000179823183727 0)
(-1.97812627594e-05 -0.000179727063775 0)
(-4.42737148282e-05 -0.000175163976006 0)
(-4.41538767866e-05 -0.000179547934108 0)
(-4.01848449962e-05 -0.000177118507097 0)
(-4.0151623362e-05 -0.000181277920929 0)
(-4.22147194608e-05 -0.000183374238662 0)
(-3.39120234194e-05 -0.00018122808465 0)
(-4.80133374039e-05 -0.000195715887114 0)
(-4.38968107957e-05 -0.00019587310089 0)
(-4.21482634344e-05 -0.000191694663642 0)
(-4.00519457015e-05 -0.000193757759741 0)
(-3.38788017851e-05 -0.000185387498482 0)
(9.47886380405e-06 -0.000191996359173 0)
(-2.79246722847e-05 -0.000175276202341 0)
(-2.39464596005e-05 -0.000179816241265 0)
(-2.77446597676e-05 -0.000183594122916 0)
(-3.18321567718e-05 -0.000181211472557 0)
(-3.1865378406e-05 -0.000177052058725 0)
(-1.97121004249e-05 -0.000175386323842 0)
(-1.97921913831e-05 -0.00018391877862 0)
(-1.55180717687e-05 -0.000179486946207 0)
(-1.14086038587e-05 -0.000192158397108 0)
(-7.21375420936e-06 -0.000187843809422 0)
(-1.56359696574e-05 -0.000188145899057 0)
(-1.13457832171e-05 -0.000183635664784 0)
(-3.07026901637e-06 -0.000192034290948 0)
(-1.52976185541e-05 -0.000195988121512 0)
(-3.02384379441e-06 -0.00018355481989 0)
(1.17877716054e-06 -0.000187629814923 0)
(-2.75895163649e-05 -0.000191578381543 0)
(-3.17324791112e-05 -0.000193691311369 0)
(-2.37451409746e-05 -0.000187801728506 0)
(-3.17989351376e-05 -0.000185370886389 0)
(-3.17657007455e-05 -0.000189531897538 0)
(-1.95057163591e-05 -0.000191886014099 0)
(-1.15682106053e-05 -0.000175543319065 0)
(-7.25529478826e-06 -0.000179484847382 0)
(-3.20418758502e-06 -0.000175409423217 0)
(9.3850913108e-07 -0.000179553585889 0)
(-3.60251117011e-05 -0.000177085282911 0)
(-3.80883675316e-05 -0.00017918160192 0)
(-3.81049783487e-05 -0.000177101895004 0)
(-3.80717567145e-05 -0.000181261308836 0)
(-3.39286342365e-05 -0.000179148377734 0)
(-3.59918900669e-05 -0.000181244696743 0)
(-3.38954126023e-05 -0.000183307791566 0)
(-3.39452450536e-05 -0.000177068670818 0)
(-3.80551458974e-05 -0.000183341015752 0)
(-4.21814978265e-05 -0.000187533652493 0)
(-4.42447408991e-05 -0.000189631568819 0)
(-4.21648742515e-05 -0.000189614956726 0)
(-4.00851673357e-05 -0.000189598345909 0)
(-4.42779752912e-05 -0.00018547055767 0)
(-4.21981086436e-05 -0.000185453945577 0)
(-4.01184017278e-05 -0.00018543733476 0)
(-3.58922124063e-05 -0.000193724535555 0)
(-3.79720790539e-05 -0.000193741147648 0)
(-3.7988689871e-05 -0.000191661440732 0)
(-3.38123457588e-05 -0.000193707923462 0)
(-3.38289565759e-05 -0.000191628216546 0)
(-3.59254340406e-05 -0.000189565121723 0)
(-3.80219115052e-05 -0.0001875020269 0)
(-3.80053006881e-05 -0.000189581733816 0)
(-3.80385350803e-05 -0.000185420722667 0)
(-3.3862190968e-05 -0.000187467205398 0)
(-3.59586684327e-05 -0.000185404110575 0)
(-3.3845567393e-05 -0.00018954850963 0)
(9.54899401666e-06 -0.000183206799487 0)
(1.79508806742e-05 -0.00019142550537 0)
(9.27618207239e-06 -0.000175268208422 0)
(-4.81428374223e-05 -0.000179062230548 0)
(-4.42873195867e-05 -0.00017928063353 0)
(-3.79353147285e-05 -0.00019370411337 0)
(-3.38123457588e-05 -0.000193707923462 0)
(-2.76891940255e-05 -0.000179098542731 0)
(-1.94853436204e-05 -0.000179216720987 0)
(-1.11994302667e-05 -0.000187567341521 0)
(-2.7942091191e-06 -0.000187423532106 0)
(1.51390706032e-06 -0.000187120756373 0)
(-2.76117165109e-05 -0.000187418879682 0)
(-1.9436215682e-05 -0.00018756763533 0)
(-1.12033635696e-05 -0.000179204884271 0)
(-3.03422803943e-06 -0.000179476692025 0)
(1.50186769754e-06 -0.000178745584515 0)
(-3.81049783487e-05 -0.000177101895004 0)
(-3.39104388601e-05 -0.000181226474575 0)
(-3.39452450536e-05 -0.000177068670818 0)
(-3.80717567145e-05 -0.000181261308836 0)
(-4.21282824158e-05 -0.000189576326407 0)
(-4.21987337819e-05 -0.000185375677038 0)
(-3.80053006881e-05 -0.000189581733816 0)
(-3.38788017851e-05 -0.000185387498482 0)
(-3.38462052892e-05 -0.000189468643774 0)
(-3.80385350803e-05 -0.000185420722667 0)
(1.04171080668e-05 -0.00019055438303 0)
(9.82952574897e-06 -0.00017443792317 0)
(1.75780352219e-05 -0.000175064522693 0)
(-3.14917008276e-05 -0.000182897225227 0)
(-3.16567888997e-05 -0.000174647874467 0)
(-3.13399842785e-05 -0.000191052435062 0)
(-3.98090138427e-05 -0.000182933305436 0)
(-1.47541462981e-05 -0.000182531915025 0)
(-3.99103750822e-05 -0.000174662679237 0)
(-3.96068858615e-05 -0.000191080125535 0)
(-3.58756015892e-05 -0.000195804242471 0)
(-3.6008500884e-05 -0.000179164989827 0)
(-3.59420448577e-05 -0.000187485414808 0)
(-4.42613644741e-05 -0.000187550264586 0)
(-3.13529317462e-05 -0.000195231386679 0)
(-3.15769250897e-05 -0.000178766980288 0)
(-3.14172612592e-05 -0.000186997205342 0)
(-3.5681668327e-05 -0.000182945067667 0)
(-3.18155459547e-05 -0.000183291179473 0)
(-2.31077898691e-05 -0.000182659338295 0)
(-4.38886118184e-05 -0.000182879628945 0)
(-4.00685565186e-05 -0.000191678052825 0)
(-1.48789564624e-05 -0.0001742854374 0)
(-3.58074241237e-05 -0.000174700195014 0)
(-1.46887828779e-05 -0.00019085554357 0)
(-6.32864752869e-06 -0.00018228890367 0)
(-3.55224637819e-05 -0.000191117789305 0)
(-3.17490899283e-05 -0.000191611604453 0)
(-3.96697272923e-05 -0.000195272255013 0)
(-3.98805904828e-05 -0.000178791769559 0)
(-3.96991005605e-05 -0.000186994664163 0)
(-4.01350125449e-05 -0.000183357627845 0)
(-4.36501293114e-05 -0.000191058107058 0)
(-4.78946893599e-05 -0.000191310855172 0)
(-2.31758942443e-05 -0.000174332536804 0)
(-6.46215691491e-06 -0.000190895266382 0)
(-2.28423422783e-05 -0.000190653897846 0)
(-6.72589503324e-06 -0.00017445673614 0)
(-4.81822830069e-05 -0.000187343565899 0)
(-3.55401133803e-05 -0.000195268024936 0)
(-3.17158682941e-05 -0.000195771018285 0)
(-3.59088232235e-05 -0.000191644828639 0)
(-4.00353348843e-05 -0.000195837466657 0)
(-3.57205060871e-05 -0.000178782503854 0)
(-3.5608295849e-05 -0.000187051445982 0)
(-4.37779320302e-05 -0.00018695695574 0)
(-3.18487675889e-05 -0.000179131765641 0)
(-3.17823243205e-05 -0.000187450593305 0)
(-4.01682341791e-05 -0.000179198214013 0)
(-3.59752792498e-05 -0.000183324403659 0)
(-4.42945861083e-05 -0.000183390850755 0)
(-4.01017909107e-05 -0.000187517041676 0)
(-4.4228130082e-05 -0.000191711275735 0)
(-2.73914107515e-05 -0.000195541593308 0)
(-4.43278077425e-05 -0.000179231436923 0)
(-4.39646936822e-05 -0.000195634030221 0)
(-3.79720790539e-05 -0.000193741147648 0)
(-3.38123457588e-05 -0.000193707923462 0)
(-2.76891940255e-05 -0.000179098542731 0)
(-1.92269435856e-05 -0.000178808912685 0)
(-2.64138748114e-06 -0.00018718110123 0)
(-1.0841346863e-05 -0.000187066086735 0)
(-2.76227379992e-05 -0.000187418967712 0)
(-1.8848788713e-05 -0.000195174645213 0)
(-1.91513568204e-05 -0.0001870925241 0)
(-2.632480745e-06 -0.000178756242083 0)
(-1.1110403669e-05 -0.000179015646345 0)
(-3.81049783487e-05 -0.000177101895004 0)
(-3.39120234194e-05 -0.00018122808465 0)
(-3.39452450536e-05 -0.000177068670818 0)
(-3.80717567145e-05 -0.000181261308836 0)
(-3.80053006881e-05 -0.000189581733816 0)
(-3.38788017851e-05 -0.000185387498482 0)
(-3.3845567393e-05 -0.00018954850963 0)
(-3.80385350803e-05 -0.000185420722667 0)
(-4.21648742515e-05 -0.000189614956726 0)
(-4.21981086436e-05 -0.000185453945577 0)
(-2.7123757985e-05 -0.000182672245186 0)
(-4.00685565186e-05 -0.000191678052825 0)
(-3.37586352495e-05 -0.000174712584685 0)
(-2.73577470635e-05 -0.000174356353146 0)
(-1.4517128424e-05 -0.000194787018222 0)
(-2.31058276427e-06 -0.000182448501289 0)
(-2.69995525338e-05 -0.000190743011546 0)
(-3.18155459547e-05 -0.000183291179473 0)
(-4.39831178675e-05 -0.00017464728605 0)
(-1.90098543834e-05 -0.000182688907036 0)
(-1.50184114959e-05 -0.0001829253934 0)
(-1.46391093246e-05 -0.000178214769972 0)
(-1.48130403771e-05 -0.000186818260697 0)
(-1.04927189929e-05 -0.000182310980572 0)
(-3.17490899283e-05 -0.000191611604453 0)
(-4.01350125449e-05 -0.000183357627845 0)
(-3.37957349417e-05 -0.000195787630378 0)
(-3.58922124063e-05 -0.000193724535555 0)
(-3.79554682368e-05 -0.000195820854564 0)
(-6.65345864422e-06 -0.000191193914268 0)
(-2.30975017377e-05 -0.000190967432541 0)
(-3.60251117011e-05 -0.000177085282911 0)
(-3.39286342365e-05 -0.000179148377734 0)
(-3.80883675316e-05 -0.00017918160192 0)
(-3.6008500884e-05 -0.000179164989827 0)
(-3.59918900669e-05 -0.000181244696743 0)
(-3.59254340406e-05 -0.000189565121723 0)
(-3.3862190968e-05 -0.000187467205398 0)
(-3.59586684327e-05 -0.000185404110575 0)
(-3.80219115052e-05 -0.0001875020269 0)
(-3.59420448577e-05 -0.000187485414808 0)
(-4.42779752912e-05 -0.00018547055767 0)
(-4.42613644741e-05 -0.000187550264586 0)
(-4.21814978265e-05 -0.000187533652493 0)
(-4.42447408991e-05 -0.000189631568819 0)
(-6.38715185504e-06 -0.000194992047143 0)
(-2.25900419097e-06 -0.000190772239935 0)
(-2.29193636192e-05 -0.00019501067474 0)
(-2.54966103982e-06 -0.000174391431781 0)
(-3.18321567718e-05 -0.000181211472557 0)
(-3.17989351376e-05 -0.000185370886389 0)
(-3.38954126023e-05 -0.000183307791566 0)
(-2.31822549533e-05 -0.000178556163545 0)
(-2.29266596971e-05 -0.000186557191463 0)
(-2.34193412602e-05 -0.000182992492426 0)
(-4.01848449962e-05 -0.000177118507097 0)
(-4.01682341791e-05 -0.000179198214013 0)
(-3.7988689871e-05 -0.000191661440732 0)
(-4.00519457015e-05 -0.000193757759741 0)
(-4.00851673357e-05 -0.000189598345909 0)
(-4.21482634344e-05 -0.000191694663642 0)
(-3.59088232235e-05 -0.000191644828639 0)
(-4.01017781528e-05 -0.000187518638993 0)
(-4.4228130082e-05 -0.000191711275735 0)
(-1.89103277031e-05 -0.000174189842823 0)
(-1.08345260102e-05 -0.000174416070891 0)
(-3.1865378406e-05 -0.000177052058725 0)
(-1.06101562565e-05 -0.00019092360459 0)
(-1.87752942277e-05 -0.000190816299069 0)
(-1.48606062624e-05 -0.000191102918472 0)
(-6.36764505439e-06 -0.000186546336884 0)
(-6.60370751273e-06 -0.000178482853613 0)
(-6.84306866679e-06 -0.00018269236716 0)
(-3.17324791112e-05 -0.000193691311369 0)
(-3.38289565759e-05 -0.000191628216546 0)
(-3.17657007455e-05 -0.000189531897538 0)
(-4.42945861083e-05 -0.000183390850755 0)
(-4.0151623362e-05 -0.000181277920929 0)
(-3.80551458974e-05 -0.000183341015752 0)
(-4.22147194608e-05 -0.000183374238662 0)
(-4.01184017278e-05 -0.00018543733476 0)
(-3.18487675889e-05 -0.000179131765641 0)
(-3.17823243205e-05 -0.000187450593305 0)
(-3.59752792498e-05 -0.000183324403659 0)
(-2.27039997343e-06 -0.000195021465596 0)
(-2.4905017776e-06 -0.000191146287564 0)
(-2.70997477311e-05 -0.000195098376113 0)
(-3.17324791112e-05 -0.000193691311369 0)
(-2.73994065022e-05 -0.000191300509624 0)
(-2.31599048238e-05 -0.00019535444364 0)
(-2.72926377104e-06 -0.000174670817198 0)
(-3.39120234194e-05 -0.00018122808465 0)
(-4.43610293767e-05 -0.000175072023091 0)
(-4.39606548957e-05 -0.000178739694212 0)
(-4.01848449962e-05 -0.000177118507097 0)
(-4.0151623362e-05 -0.000181277920929 0)
(-4.22147194608e-05 -0.000183374238662 0)
(-3.38788017851e-05 -0.000185387498482 0)
(-4.76735706524e-05 -0.0001953553515 0)
(-4.00519457015e-05 -0.000193757759741 0)
(-4.36127801685e-05 -0.000195214293085 0)
(-4.21482634344e-05 -0.000191694663642 0)
(-2.73176901487e-05 -0.000178611557526 0)
(-1.89405649851e-05 -0.000178404075754 0)
(-1.04455591414e-05 -0.000194885486572 0)
(-2.17651971626e-06 -0.00018639145812 0)
(-1.06119804478e-05 -0.000186719212251 0)
(-2.69481163596e-05 -0.000186582921545 0)
(-1.87219076084e-05 -0.000194940408622 0)
(-1.89463342399e-05 -0.000186801753719 0)
(-2.52128591316e-06 -0.00017857005335 0)
(-1.05658264606e-05 -0.000178215782074 0)
(-3.79720790539e-05 -0.000193741147648 0)
(-3.58922124063e-05 -0.000193724535555 0)
(-3.7988689871e-05 -0.000191661440732 0)
(-3.38123457588e-05 -0.000193707923462 0)
(-3.38289565759e-05 -0.000191628216546 0)
(-2.34586209723e-05 -0.000178914595352 0)
(-2.76559723913e-05 -0.000183257956563 0)
(-3.18321567718e-05 -0.000181211472557 0)
(-3.1865378406e-05 -0.000177052058725 0)
(-1.92418527443e-05 -0.000183002256742 0)
(-1.46535005134e-05 -0.000178412964876 0)
(-1.0790445731e-05 -0.000191195008397 0)
(-1.46233377712e-05 -0.000194829399421 0)
(-6.6532606733e-06 -0.000186992700616 0)
(-2.58413832958e-06 -0.00018287080741 0)
(-1.50026582868e-05 -0.000187097726106 0)
(-1.09543145453e-05 -0.000183030311109 0)
(-2.32637997996e-05 -0.000186866588689 0)
(-3.17989351376e-05 -0.000185370886389 0)
(-3.17657007455e-05 -0.000189531897538 0)
(-1.88876081091e-05 -0.000191074380595 0)
(-6.80212383687e-06 -0.000178792740257 0)
(-3.81049783487e-05 -0.000177101895004 0)
(-3.60266962604e-05 -0.000177086892986 0)
(-3.80883675316e-05 -0.00017918160192 0)
(-3.39452450536e-05 -0.000177068670818 0)
(-3.80717567145e-05 -0.000181261308836 0)
(-3.38918699111e-05 -0.000179111343456 0)
(-3.59918900669e-05 -0.000181244696743 0)
(-3.38954126023e-05 -0.000183307791566 0)
(-3.80551458974e-05 -0.000183341015752 0)
(-3.80053006881e-05 -0.000189581733816 0)
(-3.59254340406e-05 -0.000189565121723 0)
(-3.80219115052e-05 -0.0001875020269 0)
(-4.00851673357e-05 -0.000189598345909 0)
(-3.3845567393e-05 -0.00018954850963 0)
(-3.80385350803e-05 -0.000185420722667 0)
(-3.3862190968e-05 -0.000187467205398 0)
(-3.59586684327e-05 -0.000185404110575 0)
(-4.01184017278e-05 -0.00018543733476 0)
(-4.21648742515e-05 -0.000189614956726 0)
(-4.21814978265e-05 -0.000187533652493 0)
(-4.42447408991e-05 -0.000189631568819 0)
(-4.42779752912e-05 -0.00018547055767 0)
(-4.21981086436e-05 -0.000185453945577 0)
(-5.60282971153e-05 -0.000191267194576 0)
(3.90003009545e-05 -0.000195174253129 0)
(3.85633570186e-05 -0.000179908014454 0)
(3.83736243789e-05 -0.000187593115441 0)
(3.00481568978e-05 -0.000179348240485 0)
(3.92227853235e-05 -0.000194889732955 0)
(3.08684395513e-05 -0.000194969239263 0)
(3.92178913766e-05 -0.000178037001188 0)