/*--------------------------------*- C++ -*----------------------------------*\
| =========                 |                                                 |
| \\      /  F ield         | OpenFOAM: The Open Source CFD Toolbox           |
|  \\    /   O peration     | Version:  2406                                  |
|   \\  /    A nd           | Website:  www.openfoam.com                      |
|    \\/     M anipulation  |                                                 |
\*---------------------------------------------------------------------------*/
FoamFile
{
    version     2.0;
    format      ascii;
    arch        "LSB;label=32;scalar=64";
    class       volVectorField;
    location    "0.01";
    object      U;
}
// * * * * * * * * * * * * * * * * * * * * * * * * * * * * * * * * * * * * * //

dimensions      [0 1 -1 0 0 0 0];

internalField   nonuniform List<vector> 
29768
(
(-0.0284304736027 -0.0261422332471 -0.109419254646)
(-0.00685711841397 -0.0209920694819 0.00245355063358)
(-0.0286187483339 -0.0229063094481 -0.10430514248)
(-0.0350604328566 0.00573615773622 -0.093459635803)
(-0.176228102156 0.113478693104 0.139985048399)
(-0.131343826546 0.0892404716992 0.102450628486)
(-0.170796005801 0.101633381272 0.138571537929)
(-0.0198998732837 -0.00818187835755 0.00609864823262)
(-0.0340437282395 0.0101365829894 -0.0878629077652)
(-0.0952095279523 0.303189601559 0.161332988333)
(-0.0905424949281 0.431784751209 0.110877864286)
(-0.0859114730683 0.299958092293 0.157486711375)
(-0.0869747904719 0.443597548071 0.112535374247)
(-0.0221724027294 0.351952561278 0.92417563876)
(-0.0635732280453 0.254212904959 0.217568153792)
(-0.0255263899805 0.519762428852 0.880407005064)
(-0.0952347879374 0.431593836232 0.0878977921336)
(-0.0725428813526 0.358974459344 0.0261496068547)
(-0.0754702340072 0.322986362796 0.00689258756005)
(-0.061170175993 0.2498844836 -0.0105632891325)
(-0.0858338226434 0.43490739628 0.082511510349)
(-0.067794780138 0.344102208293 0.0344184298813)
(-0.0771605527224 0.330841172589 -0.00326274588013)
(-0.0638820198946 0.246694382036 -0.0150349967069)
(-0.0942589991006 0.419344360145 0.145281846832)
(-0.0294248584342 0.0638959829859 0.0209743363092)
(-0.0924142113353 0.437210735911 0.11324842099)
(-0.0188826473619 0.026490359626 0.0018195818584)
(-0.105034872844 0.407017358093 0.136665238566)
(0.0134625076752 0.0583469682501 0.0610147076431)
(-0.048453493656 0.286046310573 0.153770842081)
(-0.0553512937848 0.374016749667 0.370622624108)
(-0.0868023477864 0.401410899027 0.152027670143)
(-0.0156192320148 0.0257028554684 -0.00263614480189)
(-0.0386575277909 0.539111120292 0.535327613775)
(-0.0601494029673 0.389618583602 0.13366390611)
(0.0119129307911 0.0497995325616 0.052596610391)
(-0.0692066864917 0.442452020238 0.101458851467)
(-0.0569626693828 0.404371989469 0.122455822605)
(-0.0881246439326 0.423203867307 0.144496632656)
(-0.0243225848336 0.0500734306466 0.0142552057951)
(-0.0748663428985 0.447297832147 0.104860522613)
(-0.012348975198 0.0196136872818 0.00139130402618)
(-0.0648502455951 0.412153804644 0.129075713206)
(-0.0942079671417 0.264697064147 0.222242607531)
(-0.0721152062635 0.563757192568 0.775734309761)
(-0.0140536812409 0.52201821014 0.878663000751)
(-0.0834547747999 0.706162287134 0.676433441252)
(-0.0563899762446 0.372240552502 0.34534541457)
(-0.112335936639 0.274874795253 0.150502478008)
(-0.0945975458751 0.400510164857 0.154445631922)
(-0.0233585371263 0.0334031426972 -0.00231760682333)
(-0.104949136565 0.367472556923 0.13492110511)
(0.0346380019246 0.151481690556 0.0842875542826)
(-0.0369671314295 0.288772927727 0.15519223469)
(-0.0620970152585 0.601203794496 0.578948087124)
(-0.0506934767347 0.380788170135 0.125740041146)
(-0.0318592252387 0.0836131940874 0.0326195796469)
(-0.106163638279 0.438471835333 0.0831801178923)
(-0.0792383944448 0.389785836753 0.0770123250593)
(-0.0379269050921 0.0606312158937 0.0263113810847)
(-0.0845523305023 0.40052249532 0.0642983801361)
(-0.0832115540302 0.365320306249 0.0384714734494)
(-0.0372865987644 0.12790435227 0.0253073047924)
(-0.0785965936094 0.360786740258 0.0223498441271)
(-0.028723124542 0.0852243296676 0.0219537576009)
(-0.0864144234504 0.37507647851 0.0305259232371)
(-0.0576837870808 0.250959378415 0.0388194032817)
(-0.0276247630118 0.0696529369097 0.0186573947129)
(-0.0690451443614 0.306105145017 0.0126683973278)
(-0.0314460300257 0.118099701734 0.0293559443776)
(-0.0644913927274 0.29160683914 0.00815787649726)
(-0.0627970390707 0.287075294644 0.0190706338629)
(-0.00661109542965 0.0226769764591 0.00480261108147)
(-0.0246233715298 0.148934912083 0.0307213077842)
(-0.0190079796207 0.037374065789 0.0185971803551)
(-0.01019212169 0.0800134966818 0.0204284971251)
(-0.0143333956208 0.0404326415932 0.00861634128594)
(-0.00625150682859 0.0263810584019 0.00587092347246)
(-0.0141097140498 0.070117477142 0.0225595711773)
(-0.0667351391554 0.268421380999 0.00548506405071)
(-0.0580523643392 0.25083924965 -0.00561546172705)
(-0.0313427471649 0.167333178306 0.0250106327927)
(-0.0621412946186 0.264785851277 0.00901585910377)
(-0.039138253767 0.182819960382 0.0233789490536)
(-0.0172991354812 0.10420192107 0.0200570000214)
(-0.0719130690483 0.441295488386 0.0890246792561)
(-0.020090083696 0.0682190474876 0.0322872641234)
(-0.0277903419463 0.0669592679925 0.0219061284757)
(-0.0754262464656 0.44501321977 0.0912347418399)
(-0.00935960454934 0.0813991565053 0.038652256246)
(-0.0733368001821 0.385720899658 0.0776454010471)
(-0.0229857333655 0.0365829454895 0.00935723610625)
(-0.0670621957941 0.401134256573 0.0695804750973)
(-0.0161463111381 0.0206981593171 0.00815475180068)
(-0.0775945793095 0.354062761998 0.0388534916731)
(-0.0618364339266 0.346790747981 0.034679086585)
(-0.0295375857437 0.0864673510984 0.0208014976352)
(-0.0224750836451 0.0528680435634 0.00749323511521)
(-0.0728722834339 0.353285813993 0.0388619156836)
(-0.00748334762483 0.0279631774711 0.00173253459932)
(-0.0118940806838 0.0242977427123 0.008614157597)
(-0.0681548654042 0.351677290374 0.0376311435834)
(-0.00698008068309 0.0332663292296 0.007227510468)
(-0.0377279117801 0.197598472815 0.0290580379993)
(-0.0324637516755 0.151505551851 0.027170445504)
(-0.0785574248187 0.333481196754 -0.00344824913102)
(-0.0674050090995 0.293819648548 0.00444178610428)
(-0.0488735448204 0.218736448434 0.028135100914)
(-0.0360860197172 0.204974836202 0.0255610262963)
(-0.0718997460928 0.289333459113 -0.00143572599906)
(-0.0428522577636 0.192098436471 0.0227601291852)
(-0.0702669980676 0.269029697437 -0.00467620825566)
(-0.0304498007375 0.163010691982 0.0169923265279)
(-0.0353306062614 0.188378443214 0.0201404098793)
(-0.0721664449256 0.267477546999 -0.00748127383089)
(-0.0389670271806 0.174301015964 0.0179107603343)
(-0.0809271505929 0.300852837544 0.0746503857733)
(-0.041850062626 0.0527193364905 0.0063991814365)
(-0.084391174974 0.275163646463 0.0626747069638)
(-0.0409767191289 0.0819669637649 0.033640661919)
(-0.0755519300734 0.301047409733 0.0749422474474)
(-0.0686604892618 0.30171212067 0.0661851775703)
(-0.0387310868423 0.120234007138 0.036642199476)
(-0.0212328042791 0.0325684274115 0.00673521358923)
(-0.0741839205651 0.314873494111 0.0743561582318)
(-0.03757861648 0.0717862741144 0.0292451419856)
(-0.0681972132083 0.286806763299 0.0646355229199)
(-0.0792790240699 0.313060633741 0.0805508340512)
(-0.043732248383 0.13589960598 0.0345215648279)
(-0.0763177864114 0.3270362015 0.0774426242344)
(-0.0410729964769 0.0947142183435 0.0337916030708)
(-0.0759179950076 0.286829465615 0.0650704904898)
(-0.0375650374691 0.039653747159 0.0035554815568)
(-0.0659917065055 0.248997407158 0.0471400346867)
(-0.0190678981019 0.0270467182501 0.00484750606222)
(-0.0760069452228 0.262157968083 0.0546797999031)
(-0.0372726251907 0.0589981749658 0.0193165367718)
(-0.0659722369515 0.271789326767 0.0555768842352)
(-0.066670786546 0.168702039022 0.00530260669764)
(-0.017780713222 0.384208188262 0.22325674833)
(-0.0500353209865 0.205389987351 0.0167649169454)
(-0.0516727547993 0.160360609453 -0.0112080688433)
(0.0212155468537 0.0962212587743 0.126473884422)
(-0.058440685455 0.217995863596 0.0369363953906)
(-0.0688259175031 0.172985128507 0.0103511428829)
(-0.0408453859648 0.0782354095658 -0.030802810006)
(-0.0681260000219 0.24641580408 0.0498499546905)
(-0.0751965640748 0.198969986141 0.0114016256218)
(-0.059476842125 0.223648987542 0.0425829707885)
(-0.043039321455 0.210513578347 0.0231505282791)
(-0.0404887495191 0.236366918363 0.0481530671694)
(-0.0466523440389 0.265033752733 0.0624510304489)
(-0.0415199162308 0.244118043698 0.0528883891715)
(-0.0516577343673 0.263069287391 0.0654637700917)
(-0.04773163011 0.216423643985 0.0286404475639)
(-0.0564177860759 0.23091128106 0.0464289423958)
(-0.0445958079241 0.243923926891 0.0521383324164)
(-0.0535823425338 0.257601515405 0.0494699885745)
(-0.0624861832382 0.290127615543 0.0569869940322)
(-0.0105975872382 0.0250531295805 0.0112821464648)
(-0.0158860397394 0.0245930802239 0.00562134660389)
(-0.0532909435461 0.274772353518 0.0500043899588)
(-0.059304406699 0.27324656762 0.0552676537698)
(-0.00303375236782 -0.00124077450931 0.00755180347714)
(-0.0565048156512 0.270106702797 0.0654370242938)
(-0.00752495041396 0.0164999936459 0.0115925289771)
(-0.0502617399009 0.273122532762 0.0647888851926)
(-0.051065024582 0.260628751129 0.0475142688307)
(-0.00382143898457 -0.0184870679632 0.00647273340027)
(-0.0454903850906 0.251909563048 0.0565073591141)
(-0.0515401043576 0.269137829577 0.0669083658404)
(-0.0654983342252 0.25577364199 0.057605920266)
(-0.013830430248 0.019346445216 0.00456347975843)
(-0.0579019475342 0.255965981559 0.0496073943239)
(-0.0575263888043 0.236682691185 0.0517414549417)
(-0.00644793154571 -0.0135137856279 0.00540035926337)
(-0.0784856578819 0.141299716415 0.0310820177217)
(-0.0626132340137 0.219604751145 -0.0270019333563)
(-0.054285386859 0.129381347744 -0.0497660265469)
(-0.0449164830549 0.0478328698406 0.0206330908237)
(-0.0761253950783 0.142079708539 0.0326512120162)
(-0.0661655988747 0.219256172949 -0.0331131705492)
(-0.0554799108077 0.125750747051 -0.0545107751018)
(-0.0443776014589 0.0428311567803 0.0196690910432)
(-0.04520374093 0.0680699742878 -0.0719343870521)
(-0.0169875052759 0.035032454137 -0.0154085134337)
(-0.0409001476796 0.0280603263151 0.0167001410449)
(-0.137512952982 0.121073101553 0.108452866706)
(-0.177405157017 0.13054488783 0.142959381732)
(-0.159669439429 0.497895366391 0.445977240697)
(-0.148481615731 0.610221675887 0.296091487283)
(-0.113622466997 0.751958800792 0.570785030582)
(-0.157239305975 0.606664396795 0.306406871772)
(-0.138782678845 0.732410064323 0.569614499202)
(-0.188156437027 0.315938654444 0.222348780493)
(-0.0903132234169 0.54668563805 0.759888934003)
(-0.112899973801 0.690450055913 0.667997998689)
(-0.118368021431 0.443555570377 0.201032012591)
(-0.184872380154 0.616347141807 0.328879043961)
(-0.198287689786 0.67361123235 0.397679577915)
(-0.0301037264599 0.168506200071 0.00893570630035)
(-0.129027907489 0.536456854682 0.454387128172)
(-0.107634383912 0.613189048318 0.544549141038)
(-0.149615447855 0.510622060222 0.45588732656)
(-0.118813159053 0.607076021632 0.542340773602)
(-0.149017843034 0.577524274044 0.249964666085)
(-0.111502807786 0.31848831307 0.109922172417)
(-0.0749636821447 0.13603404374 0.0287863460029)
(-0.114592319722 0.313862974925 0.108327087741)
(-0.158060470711 0.574336388982 0.260395748489)
(-0.126391388017 0.351419711316 0.129036905908)
(-0.0794911858011 0.148794924766 0.0371096067578)
(-0.0987922169219 0.276151863011 0.0948777785487)
(-0.141295796071 0.679669431708 0.403440194464)
(-0.113193505842 0.382197319175 0.112874268465)
(-0.179662777499 0.601122205147 0.329046001984)
(-0.153545289951 0.671949236573 0.41032290093)
(-0.175297483533 0.666243743185 0.417822181585)
(-0.0125245658105 0.147672245132 0.0115693575975)
(0.0201171613432 0.0483410339041 0.0398035744013)
(-0.119809268665 0.472710632703 0.22378850038)
(-0.0568802168512 0.73251732245 0.584905478739)
(-0.142689215266 0.695646839079 0.463789733561)
(-0.161783463377 0.712993634107 0.56990362774)
(-0.158892216459 0.704576240696 0.485661500181)
(0.0571504864853 0.151785070729 0.0635690251988)
(-0.113939460831 0.768899413712 0.599037384088)
(-0.181873182368 0.235274553341 0.156747830721)
(-0.00360292157458 -0.0103603072213 0.00929604958067)
(-0.122805895948 0.204665919833 0.0752028254501)
(-0.137049075656 0.274840882784 0.103511975012)
(-0.000297638064299 -0.00113397437858 0.00385801749372)
(-0.203110222673 0.570142282998 0.252952119351)
(-0.0283128306832 0.16636992999 0.00270019303408)
(-0.0270907674349 0.0979892968467 0.0370630123977)
(-0.178078403715 0.501379485311 0.195512615197)
(-0.0186552846852 0.711584084195 0.591449264821)
(-0.132906329341 0.7049095013 0.465459166495)
(-0.0850920072206 0.771601578294 0.576902611699)
(0.0283425607747 0.0642217761258 0.0475595968462)
(-0.108030533916 0.513290319946 0.252722312186)
(-0.175207147846 0.688085058405 0.56956748113)
(-0.180484724985 0.684723432166 0.50383966823)
(-0.128358030987 0.771991149549 0.601931522738)
(-0.15485255626 0.492563973995 0.347441979304)
(-0.156613193149 0.446680595052 0.284912549273)
(-0.184729156846 0.349858454838 0.239979038116)
(-0.181314818488 0.317721657907 0.219278051521)
(-0.179298556895 0.352236622983 0.237180092929)
(-0.164501055711 0.484962787168 0.354057266371)
(-0.188693799159 0.428465749786 0.308020373071)
(-0.179605915518 0.431262306059 0.307217818679)
(-0.15887395435 0.322578973654 0.200063912316)
(-0.159450727055 0.359504641877 0.213128406124)
(-0.179446986491 0.717483883776 0.350308230319)
(-0.0815846188771 0.264430960653 0.0367403348532)
(-0.170364621609 0.674926420711 0.302992172248)
(-0.0672146639171 0.232259516326 0.0260908735851)
(-0.157919350101 0.575406622065 0.228499980092)
(-0.166561916995 0.624187334186 0.257984081115)
(-0.125217956509 0.449409756391 0.165145719801)
(-0.128113265532 0.429565968657 0.139625624259)
(-0.0123036340768 0.0112659355516 0.00524750634716)
(-0.00755784603828 -0.00387723953335 0.00443272394782)
(-0.00875250841206 0.00207848911581 0.00698197077569)
(-0.142790025049 0.346360598405 0.126148163515)
(-0.141031848928 0.297048440604 0.115014997057)
(0.000795203268934 -0.00103387387478 0.00678979041754)
(-0.102663123614 0.17908260346 0.0589789847959)
(-0.0794868317633 0.160790437332 0.034953713044)
(-0.00426853182569 0.0154590203117 0.00469311676233)
(-0.126919491985 0.25777680799 0.0933417724407)
(-0.00654643856186 0.0203006543322 0.00442084979381)
(-0.00381714168065 0.00852491982816 0.00434668907868)
(-0.0110045265977 0.00632268794548 0.00934663744866)
(-0.00995216176066 0.0168819470806 0.00873402554909)
(-0.144875675963 0.351949358017 0.127704676794)
(-0.0968958263352 0.203391969199 0.0704636083993)
(-0.13347040177 0.287262487943 0.110442361426)
(-0.00749318557611 0.0214189482306 0.00323490263185)
(-0.18892187854 0.574572612438 0.287690661846)
(-0.0189783249641 0.14206019864 0.00344282772087)
(-0.0215640186462 0.0582893531899 0.0336365989258)
(-0.131688316355 0.451728369569 0.168065108112)
(-0.164499688186 0.477433168476 0.193255680982)
(-0.0383705822193 0.0805456583886 0.0195368257073)
(-0.145440960578 0.364474880931 0.134871994344)
(-0.170492444386 0.464721390618 0.185755477822)
(-0.0212361715705 0.0410569597946 0.0104603243047)
(-0.13515006863 0.437335054841 0.146559819552)
(-0.0102454637393 0.0025970720672 0.00633832685071)
(-0.148924574409 0.37353682737 0.139410644255)
(-0.16394483745 0.45630790163 0.163034907868)
(-0.0739439885055 0.1595867019 0.0353336191795)
(-0.00382080582111 0.00800953212099 0.00319544584469)
(-0.00750623274836 0.0231322034975 0.00476947595364)
(-0.0147359287385 0.0589522326585 0.0152063472082)
(-0.00764585953495 0.0220343605642 0.0057660560896)
(-0.0856001836734 0.182888134463 0.0453012205778)
(-0.00916528614082 0.024818638719 0.00595294417457)
(-0.0822468256325 0.583630145997 0.201196125103)
(-0.0706430574485 0.697719425969 0.287619824776)
(-0.00601449003703 -0.0164560724701 0.00422537560422)
(-0.0896166304834 0.551990757283 0.183591494285)
(-0.101925679477 0.47778895137 0.154383403646)
(-0.00920959427051 0.00599528790238 0.00197818170835)
(-0.0972916146683 0.4441212865 0.116905484159)
(-0.104533258891 0.576696194323 0.204531972421)
(-0.0890182540115 0.542598532988 0.171001401442)
(-0.0117094314769 0.0165799168731 0.000563814135135)
(-0.0883114539385 0.428236678388 0.102712217989)
(-0.00679434696657 -0.0097903805484 0.00326085541531)
(-0.0856984657293 0.591003098817 0.210628361731)
(-0.10895233711 0.711420768298 0.31499469323)
(-0.0801333177887 0.701186005989 0.292722692711)
(-0.106164886012 0.611122249976 0.228942474898)
(-0.139498975167 0.636529701252 0.265698281636)
(-0.162728445209 0.706109203691 0.324389966035)
(-0.0583551018368 0.239381810409 0.0302052223067)
(-0.0312295244918 0.27640887 0.0485013624799)
(-0.148130908209 0.655726972796 0.277219998329)
(-0.141995272709 0.69191529189 0.312003392388)
(0.00490884854848 0.149324337578 0.0371649953389)
(-0.135619220568 0.608535074933 0.247124564781)
(-0.106629015085 0.489142911568 0.161802694667)
(-0.127223863553 0.517940107592 0.185072765858)
(-0.113591951831 0.584692006873 0.212322655066)
(0.00901282326914 0.0263976245155 0.0273312515951)
(-0.140911895398 0.620970399969 0.264319382081)
(-0.0435540036048 0.209350743984 0.0242378998239)
(-0.140146800899 0.550697280105 0.204556375371)
(-0.148957726626 0.602910787411 0.237412037052)
(-0.134467563614 0.530943643167 0.196557045251)
(0.01811168184 0.112579440898 0.0322865575388)
(-0.140630329417 0.633001299372 0.26981441706)
(-0.00198173723315 0.242151091849 0.0507370655019)
(-0.119726173296 0.721263108092 0.333230651844)
(-0.116804717864 0.617907139734 0.238201858187)
(-0.13017025219 0.683243498853 0.297622811223)
(0.0167877859749 0.0885660479863 0.0374173596268)
(-0.139744552752 0.786382638431 0.45988969697)
(-0.15571313237 0.753792005908 0.406656477881)
(-0.0541843956896 0.333056247554 0.0627041617887)
(-0.108008648432 0.675559253489 0.384281913523)
(-0.106331162638 0.585821925056 0.314008194947)
(-0.137055975866 0.741858522197 0.375795683566)
(-0.154133296533 0.784714644116 0.478970050232)
(-0.120602211497 0.786111990475 0.436120253455)
(-0.0200804509437 0.293638076751 0.0576914286455)
(0.0167750945211 0.433261089175 0.180665837547)
(-0.107857632148 0.731910397994 0.346232432456)
(-0.0982908454498 0.784276722189 0.42751789435)
(-0.0753181872282 0.508929703546 0.193824136735)
(-0.117459857577 0.732763706466 0.3591664731)
(-0.176599833039 0.238803196353 0.161934429294)
(-0.179919344216 0.200764935583 0.1509546824)
(-0.176635186726 0.206265182462 0.156670423519)
(-0.157403707056 0.238664020878 0.155721707543)
(-0.152383503562 0.207026286611 0.149667837883)
(-0.0276275569002 0.0263855130956 -0.0240151254289)
(0.0016704211573 -0.0239939506467 -0.00560430047964)
(-0.0773296994201 0.478251146596 0.6989177049)
(-0.0997836175293 0.507266901172 0.635428542275)
(-0.0416112148073 0.00474777348305 0.0146660405154)
(0.0170314288592 -0.0632542169032 -0.0105211710266)
(0.00872756883872 -0.0467369901605 -0.00320170708453)
(0.0128015435164 -0.0804232196252 -0.0192816339782)
(0.0059967284015 -0.0884133684261 -0.0203504815752)
(-0.0292101018383 -0.00271098941005 0.00737337394731)
(0.0165603873793 -0.0736164102086 -0.0165797858686)
(0.017936751326 -0.0684063154427 -0.0129889107546)
(0.00272623425364 -0.0429529844683 -0.00853543978794)
(0.0120664698552 -0.057252658546 -0.0143790386133)
(-0.00796225418462 -0.0149202444038 0.00324825871249)
(0.0068404589534 -0.0590461628332 -0.0180884829379)
(0.0076232208739 -0.0417599914555 -0.00723345701261)
(-0.172251013402 0.0624047337863 0.111902910446)
(-0.129502294849 0.0558298860973 0.053871335197)
(-0.178983453212 0.0850284974098 0.124271308979)
(-0.14050996166 0.0729123585296 0.0640654117717)
(-0.142581263547 0.0957709523085 0.0722861410025)
(-0.134332021274 0.0467683872108 0.0854515416657)
(-0.120070416237 0.0427860896113 0.0783049632496)
(-0.0628979497869 0.0253857117118 0.0321462633104)
(-0.0547253410322 0.0181898374317 0.0261184415875)
(-0.147130887894 0.0500224665693 0.0961182552846)
(-0.16303403266 0.0539512550825 0.109538756484)
(-0.0805664971027 0.0289162402278 0.0292204612522)
(-0.108980188744 0.0463447724712 0.0404743619759)
(-0.141790024425 0.0731366275024 0.100353715587)
(-0.126719466316 0.0703632998664 0.0898510323686)
(-0.144835289452 0.0930303738319 0.110109855698)
(-0.0749216039191 0.0393727846499 0.0439078610796)
(-0.0640936294111 0.0367893898076 0.036057659587)
(-0.0815636398964 0.059575160868 0.040025142165)
(-0.0670442789414 0.0498152625925 0.0424240724188)
(-0.154088764386 0.0789050375868 0.112323980276)
(-0.171981234847 0.0810664476266 0.12831891078)
(-0.156645621567 0.102912011161 0.123525447597)
(-0.0960118952814 0.0541118665865 0.0411472188268)
(-0.124133450784 0.0695880788912 0.0613063027378)
(-0.109642152944 0.0806392686367 0.0483919265774)
(-0.131538604718 0.089675657715 0.0700836590993)
(-0.0460822371052 0.0117969352698 0.0167612630459)
(0.0132695572008 -0.0467984651764 -0.00717258839668)
(-0.0508549918911 0.0217668697608 0.0187380536107)
(0.00893615816829 -0.0337726855401 -0.00406782318488)
(-0.0385801847203 0.00835880168288 0.0146096953968)
(0.014120518085 -0.0541251989222 -0.0116898668082)
(-0.0330059474929 0.00860511373583 0.00968442445807)
(0.0141782045688 -0.0502508873062 -0.00888212835648)
(0.00940573849829 -0.0390688989051 -0.00640200473935)
(-0.0442925795683 0.0173316587078 0.0173667473302)
(0.00969155438736 -0.0362682137641 -0.00487037733282)
(-0.036106266299 0.0200289639111 -0.0775058259933)
(-0.009754242492 -0.0175231643466 -0.0295178218574)
(-0.0145397026656 0.00889971386068 -0.0249374472271)
(-0.0412817937572 0.0450370858371 -0.0685253469933)
(-0.0493345155978 0.262801421468 0.228723014455)
(-0.0510278053675 0.496266383349 0.564089461666)
(-0.0486855847865 0.592023566159 0.641373084669)
(-0.056938720139 0.631701518094 0.78600930077)
(-0.0688551964717 0.402669795139 0.446192189533)
(-0.066752115104 0.414694231718 0.477571780368)
(-0.0439317179931 0.613242706207 0.770948141122)
(-0.0737800769319 0.185260882955 0.0382601404644)
(-0.0608515708814 0.106304128594 -0.00287661981952)
(-0.0795198967862 0.176463941333 0.0282207397243)
(-0.0569538487845 0.108252407263 0.0102069390827)
(-0.0554890494641 0.166788568443 0.0494473321674)
(-0.0513965625762 0.162111816528 0.0481792876246)
(-0.0333762922328 0.0801124447573 0.0330748070658)
(-0.0269176133374 0.050351518968 0.0137591637714)
(-0.0551572288197 0.174197602765 0.0544960843911)
(-0.0500635807666 0.154149487001 0.04310800695)
(-0.0332675706338 0.0642327646918 0.0230093704852)
(-0.0486631740412 0.130027778063 0.0190983981009)
(-0.0239272048264 0.0285861951536 0.0019431841821)
(-0.0428905729079 0.117845803502 0.00844309085584)
(-0.0162285929038 0.0230813149184 0.00330514114307)
(-0.0501647248613 0.126324111449 0.0113614996574)
(-0.0421653217183 0.120920230725 0.0163660269367)
(-0.0223610361983 0.0278928703149 0.00281972446495)
(-0.0413744509953 0.0485572537629 -0.0153923208903)
(0.0398130398254 0.174163482178 0.101017478355)
(-0.0335710213487 0.0449225840353 -0.010891024644)
(-0.042703018532 0.0579981649706 -0.0206522748497)
(-0.0336179390167 0.0405005889804 -0.00735229071214)
(0.0174621381509 0.0693682942794 0.071455188528)
(-0.0686129310733 0.156492280682 0.0151318513557)
(-0.0639514284781 0.185419711356 0.10105974736)
(-0.0595224506406 0.166076871479 0.105678806828)
(-0.051588043936 0.515077670938 0.582557554708)
(-0.0517501967662 0.17083849956 0.126202435848)
(-0.0703511803473 0.140998638433 0.0116822535728)
(0.00546005668864 0.132094047719 0.191966360758)
(-0.0330707564204 0.0846454022218 -0.0172652006144)
(-0.00868703309611 0.00300403073142 -0.00126821076781)
(-0.0199458317553 0.0368360835786 -0.00821910130047)
(-0.0380202031498 0.10585325556 -0.00510543379232)
(-0.0406444669744 0.106665679953 -0.0216392682007)
(-0.0321807244307 0.085986965861 -0.00205354674754)
(-0.00848849411082 0.0102553213027 -0.00524375636149)
(-0.0663291417144 0.154916454438 0.0139090199522)
(-0.0252192839594 0.497595117648 0.38610855748)
(-0.0513906280684 0.240520051298 0.200753798183)
(-0.0318634156204 0.454625621045 0.483022531604)
(-0.0451345530756 0.200848397177 0.163139387505)
(-0.0503562258259 0.153964517001 0.00871484869199)
(0.0470991607189 0.23607194004 0.278404642119)
(-0.0615544232464 0.27879878909 0.0514939860459)
(-0.05748097424 0.307556882834 0.0579535323403)
(-0.0553172527 0.354871326443 0.136817577931)
(-0.0698720726306 0.395299648874 0.140053863004)
(-0.0672685825618 0.3606397866 0.143275876363)
(-0.0552587893235 0.266967419137 0.037491208613)
(-0.0644503356016 0.318175770766 0.0687005680379)
(-0.00958203420151 0.0262490358663 -0.00181198854504)
(0.0314182460825 0.13550224591 0.0714954503775)
(-0.0214315442523 0.0383798429475 -0.00621660380266)
(-0.0152834525245 0.0342401300225 -0.00639029899516)
(-0.0157946049052 0.0314118942241 -0.00163374947774)
(0.0131024481858 0.0474413112603 0.0469406316531)
(-0.0600521092634 0.381826070963 0.0765279552344)
(-0.0660884545243 0.433163849297 0.110774679252)
(-0.0570887996305 0.369436160269 0.0733572075693)
(-0.0121704258137 0.0346313734315 0.000412655963827)
(-0.017421784876 0.0490117858178 0.00398096398783)
(-0.0138605747669 0.0407613797162 0.000347243201088)
(-0.016171950883 0.0417746420609 0.002221883372)
(-0.0520534503498 0.327303488161 0.0592854231655)
(-0.0612729826975 0.421896139061 0.1190420789)
(-0.0539373642822 0.351447501582 0.070644961789)
(-0.0236339406672 0.0343028039077 -0.00131319623467)
(-0.025360497233 0.0373465785658 -0.00434928321247)
(-0.0268075387184 0.0350450219166 -0.00315458571741)
(-0.0201004038824 0.0323017674597 -0.00140489521671)
(-0.0388870845148 0.132078977403 0.0350208183466)
(-0.0461111892768 0.149971451956 0.042462654329)
(-0.0192130852753 0.0405870109447 0.011615444115)
(-0.0215308124763 0.0394808522488 0.00970860301863)
(-0.0406999711834 0.13904046812 0.0389041710264)
(-0.0442891447574 0.142793783105 0.0380517293425)
(-0.0168787504782 0.031289954991 0.00844714888225)
(-0.0250675882653 0.0657706380092 0.0207688551126)
(-0.00489894689626 -0.0175650840808 0.00779690252297)
(-0.0224648729304 0.0600565240519 0.0128870307335)
(-0.025001677339 0.0793352763997 0.0317509439227)
(-0.0210944047207 0.0508880088871 0.0076280551137)
(-0.0304723976435 0.0970652243177 0.0155495072403)
(-0.00591503076629 -0.00034924995973 0.00162593311719)
(-0.0359660055968 0.107648854517 0.00642756846801)
(-0.0102707197578 0.0171722675241 0.0038937525194)
(-0.0358563919192 0.11168821331 0.0132458914725)
(-0.0309610250426 0.0899174515463 0.00942584581505)
(-0.00159588323024 0.0049643639643 0.00487307626036)
(-0.113778799725 0.176137525889 0.0625097309691)
(-0.00398436916557 0.00477491723889 0.00409790674918)
(0.00545433853823 0.00953521469329 0.00396815327465)
(-0.0706717613486 0.0868684005879 0.0422358192304)
(-0.0444752873391 0.0523457330238 -0.0010749701106)
(-0.0904017685702 0.261497420428 0.0499415247974)
(-0.0944082778685 0.219399938899 0.0269270850681)
(-0.101999744697 0.101152330111 -0.0484217886373)
(-0.0417142986281 0.0436410464513 5.02383866795e-05)
(-0.0489767343618 0.0762582054071 -0.0227999993547)
(-0.073118328616 0.229841319345 0.0289028813923)
(-0.0817590393725 0.244199391484 0.0395954784241)
(-0.0754093330929 0.193066731154 -0.000136056644591)
(-0.0818095076883 0.20223094044 0.00696111522731)
(-0.0886550437676 0.100969470527 -0.0347461584981)
(-0.0525838191579 0.471084982681 0.312910628906)
(-0.0453378324922 0.199771886156 0.00985564431552)
(-0.0456853436361 0.157475226937 -0.0136461756581)
(-0.0685635804392 0.308402718044 0.0639860182743)
(-0.040247468598 0.137392551194 0.0366018322036)
(-0.0742123479941 0.321240049479 0.0698232336126)
(-0.0737465768655 0.328494860611 0.0722886292081)
(-0.050136468572 0.171800885229 0.0288170893123)
(-0.0678330281315 0.318810863343 0.0648466528418)
(-0.0602914067976 0.198268165054 0.0467893831649)
(-0.0462377001297 0.152766352303 0.0352870431805)
(-0.0762112596605 0.333370449003 0.0715249858812)
(-0.0755785041659 0.337288390677 0.0745478641898)
(-0.0635173938364 0.223657728798 0.0498205323324)
(-0.0636398696904 0.314408379415 0.0737426192979)
(-0.0646674228732 0.199359385414 0.0566320442546)
(-0.0674668413333 0.283600530843 0.0738444625191)
(-0.0557833450992 0.233665124159 0.0552783733989)
(-0.055918257154 0.294055767812 0.071821732199)
(-0.029103535413 0.144848888429 0.047431445767)
(-0.0569787645252 0.134907184758 0.0465063663533)
(-0.05463389978 0.213116780508 0.048612346459)
(-0.064930938074 0.250277983587 0.0645510494937)
(-0.0526517750571 0.273335368683 0.0707578100693)
(-0.0454477995595 0.197990081917 0.0522080297599)
(-0.0597868166431 0.272799688022 0.0603306299558)
(-0.0573362411581 0.185837723887 0.0337350645888)
(-0.0614144057771 0.275949225836 0.0559732355171)
(-0.0584649308162 0.194079829575 0.040237894742)
(-0.0542024293878 0.26469562275 0.0532536458193)
(-0.0472798174025 0.238013294034 0.0469969775988)
(-0.0300228769003 0.124087993255 0.0327844492253)
(-0.0402880360639 0.166396379735 0.0302405156535)
(-0.0497776190613 0.235705789836 0.0566419071787)
(-0.0550310603774 0.263267980064 0.0467786804151)
(-0.0331977672411 0.154637084911 0.031348573072)
(-0.0575218465596 0.258058595487 0.0578697619778)
(-0.0424722618883 0.131524156315 0.0256372608577)
(-0.0498664811231 0.220892255417 0.0472540604349)
(-0.0449458393381 0.115482195911 0.0276691188833)
(-0.055484586012 0.255846354765 0.0534738397633)
(-0.0545332038947 0.222421944231 0.0506111293105)
(-0.052661723628 0.15691958301 0.0349179944335)
(-0.0347463893534 0.165858896079 0.0339829968618)
(-0.0370066927329 0.152664763639 0.0302511737003)
(-0.0163267557841 0.0395869930106 0.0127901957375)
(-0.0310759308518 0.0944329708063 0.0264889164855)
(-0.0305734871179 0.139431183004 0.0251401452599)
(-0.0368952476362 0.184473048099 0.0405363537676)
(-0.0233095770284 0.0599394097779 0.01844756673)
(-0.0350413505399 0.192049024475 0.0479426904467)