/*--------------------------------*- C++ -*----------------------------------*\
| =========                 |                                                 |
| \\      /  F ield         | OpenFOAM: The Open Source CFD Toolbox           |
|  \\    /   O peration     | Version:  2406                                  |
|   \\  /    A nd           | Website:  www.openfoam.com                      |
|    \\/     M anipulation  |                                                 |
\*---------------------------------------------------------------------------*/
FoamFile
{
    version     2.0;
    format      ascii;
    arch        "LSB;label=32;scalar=64";
    class       volVectorField;
    location    "0.01";
    object      U_0;
}
// * * * * * * * * * * * * * * * * * * * * * * * * * * * * * * * * * * * * * //

dimensions      [0 1 -1 0 0 0 0];

internalField   nonuniform List<vector> 
29768
(
(-0.0289043065694 -0.0247018985786 -0.109043798822)
(-0.0068895021179 -0.0208966398261 0.00245502847903)
(-0.0290986900615 -0.0215162942153 -0.103888666658)
(-0.0354752316898 0.00713525591631 -0.0932600722441)
(-0.176201949627 0.113607511976 0.139958270615)
(-0.131387080584 0.08937555205 0.102500982053)
(-0.170781000762 0.101778124185 0.138540512829)
(-0.0199355277258 -0.00807842940723 0.00610095561023)
(-0.0344888378904 0.0114790178602 -0.0876362833136)
(-0.0949829809586 0.305050648618 0.162471496704)
(-0.0904081418139 0.4342439943 0.111699216799)
(-0.0856638139032 0.301778590307 0.15863633418)
(-0.0867873294387 0.44601812046 0.113165222096)
(-0.0218706752433 0.35156416292 0.924529725105)
(-0.0634697619119 0.255476845896 0.218844232038)
(-0.0253274370014 0.520121487961 0.882701153603)
(-0.095176814331 0.433959307594 0.0883912962496)
(-0.0726339880468 0.360816363567 0.0260288590539)
(-0.0756310981024 0.324653732442 0.0065752677508)
(-0.0613404105365 0.25087240127 -0.0106312704252)
(-0.0857677119936 0.43732312391 0.082971082909)
(-0.067932904395 0.345934705309 0.0343970632742)
(-0.0772741383417 0.332497796502 -0.00364200612893)
(-0.064010447041 0.247729182984 -0.0151018684584)
(-0.0939895343335 0.421746216915 0.146248921647)
(-0.0294582508032 0.0646647223428 0.021115844025)
(-0.092147141047 0.439583218062 0.114149159438)
(-0.0188752140203 0.0267918162735 0.00183438346617)
(-0.104806703337 0.40920168788 0.137746273794)
(0.0135430597766 0.0586529089469 0.0611915730983)
(-0.0480970337326 0.287559749176 0.154964457581)
(-0.0552203075914 0.374824170763 0.371778460618)
(-0.0864275879842 0.403724151926 0.153079569656)
(-0.0156065190731 0.0259551686338 -0.00263964885796)
(-0.0385418574306 0.540244911768 0.536706247443)
(-0.0595933510356 0.391835242177 0.134667854318)
(0.0119854003338 0.0500774456107 0.0527424823205)
(-0.0688820508087 0.444825393478 0.101856974199)
(-0.0564151037214 0.406637497096 0.123268133271)
(-0.0878017761857 0.425610369577 0.1454468567)
(-0.0243394179182 0.0507435155623 0.0143569234452)
(-0.0745721445071 0.449716867344 0.105327427835)
(-0.0123280338982 0.0198903847842 0.00140144712316)
(-0.0643377501393 0.414462398395 0.129947640973)
(-0.0940890071385 0.266073806748 0.223451106902)
(-0.0721203749669 0.56358106265 0.776540022894)
(-0.013785336059 0.522473618924 0.880893673178)
(-0.083173961828 0.706453003084 0.677393825135)
(-0.0562599892547 0.373029387736 0.346451964043)
(-0.112128586502 0.276427807031 0.151687722393)
(-0.0942843444361 0.402821969845 0.155515360443)
(-0.0233582178617 0.033682631219 -0.00231461517821)
(-0.104692487226 0.369534289817 0.136166042356)
(0.0347961500666 0.151977041907 0.0845359570948)
(-0.0366130186662 0.290233449093 0.156395004476)
(-0.0620275961309 0.602391031241 0.580338667242)
(-0.0501076396667 0.382954740333 0.12669656558)
(-0.0318954012204 0.0845255016209 0.0328297778739)
(-0.106061110747 0.440775140883 0.0837077168543)
(-0.0792309047551 0.391949330789 0.0774490226905)
(-0.0380628265303 0.0614598769063 0.0264842151975)
(-0.084480785369 0.402664883361 0.0646717699337)
(-0.0832935285921 0.367374615774 0.0384668048054)
(-0.0373368624185 0.129234297469 0.0254420854918)
(-0.0786775611894 0.36261938772 0.0221049377353)
(-0.0287839623722 0.0862139816955 0.0220933441935)
(-0.0864257552781 0.377139617166 0.0304159451128)
(-0.0577203391595 0.252907371288 0.0390158836767)
(-0.0277227939325 0.0704196594008 0.0187413910298)
(-0.0692343812827 0.307741794329 0.0124193475323)
(-0.0314879159533 0.119313876606 0.0295078579656)
(-0.0646506006706 0.292977854709 0.00779153630655)
(-0.0630003285238 0.288488787581 0.0187920542033)
(-0.00660726228221 0.0231989671999 0.00483206601815)
(-0.0246515314744 0.15019554472 0.0308299214187)
(-0.0190935970149 0.0379082251711 0.0187018365058)
(-0.0102373196366 0.0807735932172 0.0205502241241)
(-0.0143906180676 0.0410064894269 0.0086613089044)
(-0.00623883932903 0.0269346843229 0.00590849895132)
(-0.0141318904065 0.0708583052151 0.022670517538)
(-0.0669282862685 0.269680912952 0.00513622973543)
(-0.0582982440793 0.251797314723 -0.00570600559969)
(-0.0314369634257 0.168411069098 0.0251234610769)
(-0.0624096980611 0.266023911465 0.00869066032451)
(-0.0392296622658 0.184082357188 0.0234436935986)
(-0.0173692295278 0.105089815662 0.0201777368986)
(-0.0716662629396 0.443623430392 0.0893017765555)
(-0.0201021860359 0.0691168283418 0.0325170974928)
(-0.027819250494 0.0677516627941 0.0220569785908)
(-0.0751983625305 0.447382174924 0.0915698462681)
(-0.00928531268504 0.0823932658318 0.0389276106143)
(-0.0733544975585 0.387885017365 0.0780665507091)
(-0.0230388659856 0.0372236661912 0.00940216740162)
(-0.067031471057 0.403345786382 0.0698774123299)
(-0.0161584236258 0.0212285035825 0.00818731029806)
(-0.0776754408899 0.356091087835 0.0388759480491)
(-0.0619172285342 0.348616102105 0.0346610483769)
(-0.0296003806166 0.08748936386 0.0209162028864)
(-0.0225214365439 0.0536149123236 0.00753139099779)
(-0.0729287101188 0.35525551508 0.0388433798879)
(-0.00745657036804 0.0285371778133 0.0017349759369)
(-0.0118815889511 0.0248571140527 0.00866056570406)
(-0.0683449599697 0.353504177522 0.0376739385872)
(-0.00694537706456 0.0338825369829 0.00727559034173)
(-0.0377620979641 0.199040667397 0.0291520776359)
(-0.0324720041157 0.152929116871 0.0272947798337)
(-0.0786270014597 0.335197885444 -0.00386960739994)
(-0.0675174712677 0.295193056248 0.00403800376612)
(-0.0489035745041 0.220435004159 0.028237733908)
(-0.0361255036537 0.206493583889 0.0256036162853)
(-0.0719827499644 0.290759818542 -0.00187538421137)
(-0.0429558956119 0.193418137506 0.0228364316077)
(-0.0704076256064 0.270306983412 -0.0050387438748)
(-0.0305489924928 0.164116606524 0.0170821741987)
(-0.0353989396754 0.189629130909 0.0202097113555)
(-0.0722854438412 0.268788378378 -0.00786948851847)
(-0.0390674489749 0.175474219472 0.0179912093509)
(-0.0808443810776 0.302684613895 0.0752971165812)
(-0.0419306773211 0.0531636588703 0.00646556246139)
(-0.0843177672644 0.276794962047 0.0632938550728)
(-0.0410446440672 0.0827290141396 0.0338506107289)
(-0.0754643715203 0.303012426052 0.0755212051101)
(-0.0685590344415 0.303760012776 0.0666662512752)
(-0.0387415233215 0.121396390234 0.0368703743417)
(-0.0212401391182 0.0330515999788 0.00678205416386)
(-0.0741103924994 0.316964994135 0.074897909448)
(-0.0376411780894 0.0725270793849 0.0294295911733)
(-0.0680785615972 0.288732042529 0.0651423325223)
(-0.0791977175359 0.315032837188 0.0811818224986)
(-0.043744420217 0.137157794085 0.0347472215635)
(-0.0762421819903 0.329153050385 0.0780279344987)
(-0.0411289796969 0.0955998757123 0.0340012518438)
(-0.0758110444359 0.288645102163 0.0656746761855)
(-0.0376207874094 0.040031039517 0.00358869855794)
(-0.0658255407349 0.250614184882 0.0476460110134)
(-0.0190665197058 0.0274669576821 0.00488232541732)
(-0.0758925073175 0.263784300613 0.0552659423842)
(-0.0373416119328 0.0596183572639 0.0194391236837)
(-0.0658144950188 0.273577567966 0.0560942773557)
(-0.0665720490158 0.169712221051 0.00569286341663)
(-0.0177143181561 0.385239251084 0.223811153432)
(-0.0498299536039 0.206765617533 0.0171551573223)
(-0.0515733515248 0.161294352027 -0.0109024764546)
(0.0213368746657 0.0966639668072 0.126858901302)
(-0.0582382224385 0.219474873009 0.0373929544228)
(-0.0687273781293 0.174028968813 0.0107648581238)
(-0.0408789498753 0.0785009629483 -0.0308284310244)
(-0.0679229048888 0.248005708115 0.0503966386598)
(-0.075098655867 0.20018989545 0.0118427538938)
(-0.0592703204055 0.225158823373 0.043060081383)
(-0.0428128562092 0.211962922374 0.0235148237092)
(-0.0402516085248 0.238106907515 0.0485138709446)
(-0.046485459734 0.267000630555 0.0627712466234)
(-0.0412935194748 0.24593020384 0.0532413125737)
(-0.0514289494005 0.264946678184 0.0659105029912)
(-0.0475072576707 0.217914640769 0.0290283079782)
(-0.0561997152682 0.232506629035 0.0468822259354)
(-0.0443619774959 0.245701261542 0.0525204398455)
(-0.0533910167325 0.259475908606 0.0498492553809)
(-0.0623525584017 0.292143756212 0.0574328440968)
(-0.0105545519096 0.025565660543 0.0113633720028)
(-0.0158711010875 0.0250301040445 0.00565951494397)
(-0.0531200117035 0.27674147365 0.0504001562268)
(-0.0591357441727 0.275151224406 0.0557232192727)
(-0.00296591566596 -0.000944362606156 0.00759318038098)
(-0.0563043676942 0.272043944759 0.0658667079002)
(-0.00747246644005 0.0169554096972 0.0116717726141)
(-0.0500999094976 0.275121615372 0.0651350175546)
(-0.0508933993636 0.262572091343 0.0478464743976)
(-0.00377762569651 -0.0183055155059 0.00650747752273)
(-0.0452681731184 0.253758149911 0.0568813791124)
(-0.0513033490031 0.271017643189 0.0673630064581)
(-0.0652950960959 0.257456583426 0.0581428434956)
(-0.0138099124395 0.0197271534134 0.0045924975379)
(-0.0577076920534 0.257752507916 0.050039101939)
(-0.057307616626 0.238306618151 0.0522170550109)
(-0.00641585980398 -0.0133082193843 0.00542348786658)
(-0.0785104334093 0.141536447039 0.0310980013423)
(-0.0628401181764 0.220561219152 -0.026867565085)
(-0.0546056652511 0.130448410465 -0.0495786744126)
(-0.0449380483399 0.0479818099897 0.0206442261573)
(-0.0761552702523 0.142316856196 0.0326699500129)
(-0.0663484686246 0.220256667454 -0.0330293620932)
(-0.0557578013309 0.126866710715 -0.0543162002606)
(-0.0444117750955 0.042978070682 0.0196819559116)
(-0.0455810147641 0.0693407178696 -0.0716307295866)
(-0.0173567447397 0.0361432593004 -0.0151397344698)
(-0.0409305691861 0.0281879488111 0.0167082085969)
(-0.137540887874 0.121230455194 0.108483300831)
(-0.177369099306 0.130711668877 0.142934898429)
(-0.159586739083 0.498151971317 0.446272148726)
(-0.14837491541 0.610757180425 0.29636034865)
(-0.113355651769 0.752442462267 0.571558321976)
(-0.157128920438 0.607181569028 0.306686261652)
(-0.138546271423 0.73284470284 0.570371824213)
(-0.188079443036 0.316227325673 0.222446694087)
(-0.0903002376945 0.5463427466 0.760744413576)
(-0.112631354475 0.690593374296 0.668979552807)
(-0.118491259551 0.444408095064 0.201385766603)
(-0.184768668098 0.616839574658 0.329259933468)
(-0.198175203578 0.674146144621 0.398171470018)
(-0.0300993679054 0.168902072702 0.00895599581284)
(-0.128857883399 0.536832473681 0.454761363548)
(-0.107400497549 0.613574986918 0.545038219597)
(-0.14951655926 0.510933941043 0.456182302022)
(-0.118616284431 0.607388882 0.542851568653)
(-0.148930515539 0.578043885401 0.250174017724)
(-0.111492140513 0.318879416476 0.11000200147)
(-0.074985796936 0.136272149579 0.0288022334219)
(-0.114582038971 0.31424388129 0.108396783302)
(-0.15796931063 0.574836095465 0.260612324873)
(-0.126373376701 0.351826181187 0.129129315914)
(-0.0795211796816 0.149041799676 0.037132610492)
(-0.0987862573975 0.276508590108 0.0949381239611)
(-0.141142421319 0.68021077409 0.403853201737)
(-0.113310473909 0.382973361303 0.113053448647)
(-0.179538744813 0.601603619268 0.329353956083)
(-0.153390156704 0.672461241733 0.410731084873)
(-0.175128172562 0.666739574352 0.418251527938)
(-0.0124954380666 0.14803563268 0.0115923798808)
(0.0202059908206 0.0485896651296 0.0398927722835)
(-0.119934266331 0.473631929992 0.224201409954)
(-0.0567373479066 0.733556659889 0.585995298878)
(-0.142501773823 0.696170597772 0.464281041696)
(-0.161627701626 0.713418472995 0.570641880213)
(-0.158700775789 0.705011240587 0.48633429384)
(0.0573566018957 0.152227703885 0.0637184712092)
(-0.113866380161 0.769874327621 0.600115169786)
(-0.181816874358 0.235500975247 0.156791780601)
(-0.00361076821492 -0.0101205174867 0.0093551592773)
(-0.12280822014 0.204951301123 0.0752612371144)
(-0.137040046697 0.275181563791 0.103603489856)
(-0.00030171357541 -0.000832982959805 0.00388467351409)
(-0.203057678712 0.570664567331 0.253206237744)
(-0.0283076403439 0.166753616596 0.00271325195621)
(-0.0270837287431 0.0982452596614 0.0371098178442)
(-0.178050482172 0.501889938317 0.195707117211)
(-0.018442289173 0.712671219545 0.59256858988)
(-0.132717057945 0.705455904052 0.46595334176)
(-0.0848440204911 0.772145320148 0.57779903257)
(0.0284589927895 0.0645124499079 0.0476734115947)
(-0.108115030894 0.514231993339 0.253206945884)
(-0.175092681305 0.688427433476 0.570324776721)
(-0.180334279674 0.685161233817 0.504559058747)
(-0.128259116605 0.77294731681 0.603037729677)
(-0.154776310499 0.492937079727 0.347635082709)
(-0.156586245463 0.447059206815 0.285049330388)
(-0.184662079239 0.350179313066 0.240086652957)
(-0.181262263514 0.318020199146 0.219318003854)
(-0.179251845153 0.352570208043 0.23722496906)
(-0.164431283566 0.485348889652 0.35421889598)
(-0.188640544799 0.42880509512 0.308186801247)
(-0.179553684001 0.431619657464 0.307336078706)
(-0.158887316844 0.322865014192 0.200154729465)
(-0.15946244867 0.359817902245 0.213220813339)
(-0.179424567989 0.718249650342 0.350779527897)
(-0.0816532485866 0.264992269098 0.0368084424946)
(-0.170332292738 0.675663543239 0.303369552071)
(-0.0672615917976 0.23276626546 0.0261406135651)
(-0.157905355316 0.57604924559 0.228781398416)
(-0.166555169442 0.624881257964 0.258299591135)
(-0.12516994698 0.449895378375 0.165281272026)
(-0.128078346284 0.430036604683 0.13973604209)
(-0.0123261926917 0.0117104597548 0.00528895921201)
(-0.00755912804808 -0.00357402758791 0.0044636628871)
(-0.0087907339529 0.00240233808244 0.00702465698587)
(-0.142771804425 0.346760255386 0.126261706151)
(-0.141017261411 0.29740730086 0.115114114138)
(0.000823488735316 -0.000729058580415 0.00683002296308)
(-0.10266834981 0.179352175445 0.0590163553482)
(-0.079504668238 0.16106233351 0.0349750337904)
(-0.0042760979266 0.0158627093857 0.00473629665679)
(-0.126912604499 0.258112107886 0.0934101214547)
(-0.0065403268945 0.0207348250849 0.00444771475504)
(-0.00383803175313 0.0088852997791 0.00438056708747)
(-0.0110426876969 0.00668608372332 0.00940566400558)
(-0.00996192220123 0.0173658862223 0.0087952298249)
(-0.144850599731 0.352351319787 0.127807897691)
(-0.0969143504696 0.20370042643 0.07051043396)
(-0.133455188192 0.287620287362 0.110521834462)
(-0.00749618988747 0.0218809293238 0.00326524801766)
(-0.188823489293 0.57504407659 0.287940784259)
(-0.0189613260217 0.142409128623 0.00345382514787)
(-0.0215597154505 0.0584994314886 0.0336807595578)
(-0.131637519874 0.452211666517 0.168206062482)
(-0.164459912722 0.477930204568 0.19341997008)
(-0.0383812296823 0.0807795013977 0.019560188684)
(-0.14542038568 0.364895053077 0.135004117926)
(-0.170460145102 0.46519426573 0.185936356354)
(-0.0212371956129 0.0412432232572 0.0104731220549)
(-0.135109651123 0.437805678702 0.146678523988)
(-0.0102655180502 0.00296995460046 0.00638509543892)
(-0.148893744499 0.373956529667 0.139532234705)
(-0.163907006216 0.456788962513 0.16318199457)
(-0.0739657517173 0.159854092877 0.0353583190176)
(-0.00382939792424 0.00835927606834 0.00322613842803)
(-0.00750374384532 0.0235818083714 0.00479988702011)
(-0.0147519495915 0.0596692575133 0.0153167068339)
(-0.00762905086597 0.0225445477596 0.00580888893715)
(-0.0856237243847 0.183177066195 0.0453303818373)
(-0.00917176589134 0.0252986937505 0.00599554617556)
(-0.08215927133 0.584389333177 0.201474653855)
(-0.0705025885972 0.698581615504 0.288035522877)
(-0.00599673387466 -0.016289367099 0.00424979937733)
(-0.0895445164675 0.552702563766 0.183838347228)
(-0.101873652196 0.478392216469 0.154577160277)
(-0.00918706449076 0.00634976061548 0.00198937343437)
(-0.0972526303021 0.444722763172 0.117059417761)
(-0.104457514442 0.577390460806 0.204803613367)
(-0.0889518225682 0.543316439716 0.171231466133)
(-0.0116894732832 0.0170037364453 0.000569012031591)
(-0.0882659742939 0.428827180136 0.10285122219)
(-0.00677233284041 -0.00957243941372 0.00327800620865)
(-0.0856076421301 0.59175079108 0.210918311548)
(-0.10884915622 0.712236772254 0.315438273678)
(-0.0799963727352 0.702030395353 0.293142454175)
(-0.106078143337 0.611847224818 0.229252244761)
(-0.13945613716 0.637256602675 0.266051722556)
(-0.162703472975 0.706889462721 0.324850006449)
(-0.0583867583431 0.239906464736 0.0302696467976)
(-0.0311960616927 0.27703434529 0.048620810945)
(-0.14809100097 0.656450347132 0.277585929698)
(-0.141947074776 0.692706853833 0.312452082019)
(0.00497693095529 0.149706487763 0.037237594672)
(-0.1355622858 0.609219497374 0.247442274702)
(-0.10657586977 0.489747252739 0.162006892772)
(-0.12717837095 0.518547365484 0.185305650641)
(-0.113520025102 0.585380904253 0.212603685136)
(0.00906192238196 0.0265827796817 0.0273790171578)
(-0.140861658977 0.621652968638 0.264664737311)
(-0.0435642678028 0.209821126086 0.0242882794595)
(-0.140123566829 0.551332492458 0.204811305651)
(-0.148942140161 0.603599640711 0.23771532455)
(-0.134429128004 0.531553422013 0.196805279376)
(0.0181907362788 0.112898727534 0.0323448635686)
(-0.1405592857 0.633710876712 0.270163830717)
(-0.00189674677994 0.242722649509 0.0508598698153)
(-0.119631234736 0.722072837727 0.333698389818)
(-0.11672401158 0.618625892055 0.238524677386)
(-0.130107974734 0.684048120009 0.298039310778)
(0.0168670520877 0.0888534310818 0.0374885082085)
(-0.139639430587 0.787241549039 0.460602015564)
(-0.155634825713 0.754605707598 0.407268070191)
(-0.0541854841323 0.333802389322 0.0628620055638)
(-0.108032122429 0.676735052011 0.38505920454)
(-0.106411831137 0.587026961044 0.31462780625)
(-0.13696680369 0.742675523199 0.376339772841)
(-0.15403865586 0.785558054297 0.479758743111)
(-0.120486992865 0.786996983465 0.436799102794)
(-0.0200201967586 0.294321274418 0.0578446033649)
(0.0169624157736 0.434267571707 0.180998723268)
(-0.10775092034 0.732776450227 0.346738030644)
(-0.0981496787015 0.785184933763 0.428172733589)
(-0.0753432044423 0.510027458315 0.194154857754)
(-0.117353023632 0.733592515157 0.359691857578)
(-0.176553602144 0.239029047762 0.161950075873)
(-0.179863190519 0.200966034168 0.150987740732)
(-0.17658416248 0.206468660495 0.156679491131)
(-0.15740998339 0.238889225389 0.155790274772)
(-0.152381531897 0.207226320093 0.149719852789)
(-0.0279701249497 0.0277191293607 -0.0237493038695)
(0.00152432122722 -0.0231916225284 -0.00548186466649)
(-0.0771730334406 0.478296983304 0.699630670573)
(-0.0996802552484 0.507422534442 0.636166869197)
(-0.0416397795862 0.00484586753052 0.0146660347437)
(0.0168331958552 -0.0626445311575 -0.010413331059)
(0.00865386906488 -0.0464464439108 -0.00317551537673)
(0.012558174408 -0.0795351048813 -0.0190821372442)
(0.00569997222928 -0.0873644858616 -0.0201956940516)
(-0.0292465291367 -0.00260888983263 0.00737487581044)
(0.0163150201393 -0.0728672187286 -0.0164305729626)
(0.0177240330342 -0.0677395233793 -0.0128630533498)
(0.00253241622329 -0.0420905606033 -0.00840397139425)
(0.0118613989696 -0.0564445444274 -0.0142285931618)
(-0.00799149083461 -0.0148199177498 0.00325087105011)
(0.00663168151787 -0.0581224962365 -0.0179100539821)
(0.00745195085222 -0.0410109469492 -0.00710907689305)
(-0.172256287547 0.0624965932443 0.111865465925)
(-0.129540510371 0.0559181233403 0.053864612376)
(-0.1789668887 0.0851403615445 0.124235414145)
(-0.140527914383 0.0730142528455 0.0640604287467)
(-0.14259000192 0.0958862450926 0.0722969782905)
(-0.134380414281 0.0468628235522 0.0854870517195)
(-0.120126995419 0.0428767115488 0.0783509924892)
(-0.0629697499414 0.0254872681847 0.0321719604906)
(-0.054797456002 0.0182895829339 0.0261390418361)
(-0.147163773515 0.0501207059671 0.0961312829512)
(-0.163052523717 0.0540549139937 0.109525150648)
(-0.0806383690739 0.0290132474123 0.0292365793299)
(-0.109043007349 0.0464428960857 0.0404799110011)
(-0.141828018144 0.0732555140931 0.100382282724)
(-0.126772864016 0.0704782820842 0.0898953643019)
(-0.144861755281 0.0931725494735 0.110141042618)
(-0.0749928840418 0.0394864115201 0.0439414786655)
(-0.0641672645528 0.0369054966275 0.0360864220132)
(-0.081634217351 0.059702348433 0.0400566526148)
(-0.067117080321 0.04994262685 0.0424652696474)
(-0.154107660577 0.0790287204191 0.112322889409)
(-0.171978451197 0.081195600231 0.128288046824)
(-0.156653863899 0.103052181851 0.123524456804)
(-0.0960784257226 0.054226025074 0.0411611902546)
(-0.12418230758 0.0697031757785 0.0613066642029)
(-0.109706214191 0.0807692801693 0.0484099906026)
(-0.13157481137 0.0897991866655 0.0700895627733)
(-0.0461038441464 0.0119007507436 0.0167623508008)
(0.0131103558223 -0.0462099142784 -0.00708332691936)
(-0.0508737559553 0.0218796482025 0.0187412660794)
(0.00878711024934 -0.033190386175 -0.00398563662925)
(-0.0386134356662 0.00846585876067 0.0146130308458)
(0.0139344558829 -0.0534209151829 -0.0115729222627)
(-0.0330437233616 0.00871761923326 0.00968892778975)
(0.0140069248345 -0.0496174709185 -0.00878320733444)
(0.00923480043538 -0.0383924005938 -0.00630143978851)
(-0.0443208292916 0.0174451323861 0.01737189204)
(0.00953328390947 -0.0356474075061 -0.0047817377041)
(-0.0365798683803 0.0212849378722 -0.0771467898109)
(-0.0102059038297 -0.0163620690423 -0.0292440493236)
(-0.0149744251033 0.0100566990671 -0.0246792858287)
(-0.0417607737909 0.0462883217557 -0.0682312598486)
(-0.0492587255181 0.264066746603 0.230029714333)
(-0.050859863307 0.497196779088 0.565708555925)
(-0.0485405913993 0.593064672057 0.642891581392)
(-0.0568910238881 0.632440545672 0.787806564932)
(-0.0688376108481 0.4040081872 0.448052291129)
(-0.0667965525588 0.416033938169 0.479682678357)
(-0.0437704172339 0.613937669127 0.772798979548)
(-0.0738230383179 0.186429628076 0.0386078784155)
(-0.0609561527289 0.106969532398 -0.00274884859064)
(-0.0795709090884 0.177519180209 0.0285388481429)
(-0.0570441433459 0.109007113886 0.0103623808584)
(-0.0555145139315 0.168145974509 0.0497977988545)
(-0.0514054436091 0.16346761386 0.0485022010852)
(-0.0334150965622 0.0810013737593 0.0332857961748)
(-0.0269447714779 0.0510031030193 0.0138531185048)
(-0.055175797384 0.175630431213 0.0548566921102)
(-0.0500688272671 0.155427441024 0.0434192949535)
(-0.0333180937903 0.0649819735709 0.0231556356169)
(-0.0486453865166 0.130932692768 0.0192922268173)
(-0.0239358297526 0.028901332684 0.00195815229634)
(-0.0428474384793 0.118623655922 0.00858257949541)
(-0.0162154253433 0.0234086762216 0.00332658478717)
(-0.0501436785914 0.127139865851 0.0115226270754)
(-0.0421242720213 0.121782847773 0.0165366133001)
(-0.0223689029974 0.0282433126906 0.00284120214048)
(-0.0413921130302 0.0488592350225 -0.0154112893054)
(0.039998124077 0.174732047345 0.101321076724)
(-0.0335709982218 0.0452625996764 -0.0108997400972)
(-0.0427229160378 0.058310424106 -0.0206785913135)
(-0.0336159854525 0.0408413798852 -0.00735525031899)
(0.0175603491735 0.0697161610676 0.0716720000486)
(-0.0685746516111 0.157383037065 0.0155136283946)
(-0.0640040841604 0.186125754266 0.101618121477)
(-0.0595525097046 0.166524828447 0.10608044585)
(-0.0514541635136 0.516142304679 0.584036444272)
(-0.0518169058407 0.171521352129 0.126759296565)
(-0.0703581582483 0.141726549457 0.0120385239923)
(0.00557639567506 0.132604667832 0.192574817507)
(-0.0330229976405 0.0851250279667 -0.0172430788283)
(-0.00866890852985 0.00318954426171 -0.00127387079694)
(-0.0199408034875 0.0370759690674 -0.00823862565752)
(-0.037959661204 0.106507127312 -0.00501531082754)
(-0.0405912813534 0.10722397924 -0.0215924828363)
(-0.0321278151892 0.0865631600941 -0.00199025584281)
(-0.00846836631732 0.0104331333243 -0.00526090898142)
(-0.0662900370639 0.15576334084 0.0142892283338)
(-0.0251278624745 0.498833228435 0.387040458902)
(-0.0514496064441 0.241229952748 0.201585808056)
(-0.0317228803344 0.455634199587 0.484388918347)
(-0.0451877707763 0.201500052806 0.163883965128)
(-0.050314056936 0.154752866976 0.00905894938855)
(0.0473397723711 0.236813546056 0.279220084875)
(-0.0612522373712 0.280610085349 0.0522116956277)
(-0.0571518333276 0.309536509964 0.0586178215967)
(-0.0547524487027 0.356908847548 0.137960721604)
(-0.0693866075464 0.397565800709 0.141079028891)
(-0.0667776766948 0.362738642954 0.144424733137)
(-0.0549548551324 0.268731610315 0.038162115999)
(-0.064144871787 0.320215209721 0.0693870314289)
(-0.00952743394018 0.0266201234021 -0.00180534263911)
(0.0315569017099 0.135950544144 0.0716999425577)
(-0.0214041387959 0.0387468879432 -0.00621721116347)
(-0.0152514526776 0.0345795667183 -0.00639287574962)
(-0.0157473769477 0.0318096995571 -0.00162609556137)
(0.0131737210996 0.0476978913208 0.0470585117794)
(-0.0598396668982 0.384170374489 0.0768516968413)
(-0.0656796184445 0.435531564171 0.111331849686)
(-0.0568185268776 0.371746107777 0.0737156670979)
(-0.0120945351365 0.0351947350448 0.000416580955211)
(-0.0173561730805 0.0496733228903 0.0040102210412)
(-0.0137942356498 0.0413700795268 0.000351699403065)
(-0.0160999656907 0.0423797976512 0.00223848203601)
(-0.0517157354518 0.329404443832 0.05979290126)
(-0.0607900254782 0.424229317564 0.11972251313)
(-0.0536178362227 0.353679959747 0.0710997589793)
(-0.0235986932844 0.034727163316 -0.00130440363343)
(-0.0253380582937 0.0377224148894 -0.00434648622936)
(-0.0267868288316 0.035424114901 -0.00315095885277)
(-0.0200611207952 0.0327097791267 -0.00139810672151)
(-0.0388423789738 0.13322688497 0.0352717491496)
(-0.0460990757086 0.151252065274 0.0427476787305)
(-0.0192080552893 0.0411959700256 0.0117012485165)
(-0.0215376421185 0.0400582831993 0.009778240039)
(-0.0406630455772 0.140256211458 0.0391673619428)
(-0.0442701609591 0.14400365824 0.0383249007315)
(-0.0168659255094 0.0318165810497 0.0085084675406)
(-0.0250023748517 0.0665262662611 0.0209002088743)
(-0.00486940025486 -0.0173670104845 0.00784415417268)
(-0.0224084805011 0.0607904082507 0.012967663912)
(-0.024927573154 0.0801975548325 0.0319517777188)
(-0.0210295259545 0.051546804657 0.00767783941708)
(-0.0303974764008 0.0978325396318 0.0156800615504)
(-0.00588345552681 -0.000144960395158 0.00163126727903)
(-0.035903914451 0.108392822804 0.00654674722627)
(-0.0102391599221 0.0174778018845 0.00391480885894)
(-0.0357930834686 0.112518811128 0.0133902968977)
(-0.0308991577827 0.0905888015852 0.00952509785953)
(-0.00153745457749 0.0052225481654 0.00489497086842)
(-0.113786413708 0.176399920328 0.0625542642074)
(-0.00401966142312 0.00512897189831 0.00413262837748)
(0.00543658021084 0.00996157197099 0.00400790347947)
(-0.0706940909191 0.0870615813274 0.0422666177211)
(-0.0445580688927 0.0527370950806 -0.0010254334045)
(-0.0903096932413 0.262913925737 0.0505893960627)
(-0.0943730584088 0.220521296538 0.027339332125)
(-0.102145579689 0.101579425452 -0.0483608242628)
(-0.0417722052431 0.0439876535217 7.54773789159e-05)
(-0.0490186365077 0.0765319676672 -0.0228097091788)
(-0.0729569251675 0.231240360756 0.0294026791876)
(-0.0816308827802 0.245615705117 0.0401936345978)
(-0.0753261422688 0.194202623988 0.000208816951697)
(-0.081731317573 0.203367905975 0.00734443157783)
(-0.088779010767 0.101377240677 -0.0347368674796)
(-0.0525927600849 0.472295362386 0.313707625745)
(-0.0451303700159 0.201102783971 0.0102198005597)
(-0.0455810060233 0.158376766309 -0.0133524930799)
(-0.0685048035082 0.310507719605 0.0644242776736)
(-0.0402580610235 0.13869076278 0.0368368555101)
(-0.0741670824961 0.323406773266 0.0703130715784)
(-0.0737321080504 0.330708747535 0.0727606679373)
(-0.0501704814761 0.17329332157 0.0290000404968)
(-0.067803310761 0.320989942683 0.0652805818976)
(-0.0603578801592 0.19996105732 0.0471027453722)
(-0.0462556725173 0.154160403424 0.0355273928666)
(-0.0761573476407 0.335566820874 0.0720531247413)
(-0.0755471331554 0.33950844101 0.0750411564397)
(-0.0635682099067 0.22552487798 0.0501790846573)
(-0.0636217520418 0.316643973039 0.0741976279747)
(-0.0648206942218 0.201168128724 0.0569671092566)
(-0.0675199719209 0.285782209897 0.0742592447088)
(-0.0558266554029 0.235619745751 0.0556547887591)
(-0.055897145244 0.296242395071 0.0722602166456)
(-0.0290874626509 0.146245747781 0.0477479984742)
(-0.0571575644506 0.136267378534 0.0467884457721)
(-0.0546919143786 0.214921754764 0.0489071743894)
(-0.0650064445977 0.252289886521 0.0649253786367)
(-0.0526241680365 0.275412438731 0.0712145755796)
(-0.0454771965284 0.199728965438 0.0525583993544)
(-0.0598353269437 0.274865727812 0.0606072467678)
(-0.0574663126166 0.187547744711 0.0339028594738)
(-0.0614619264465 0.278091023915 0.0562517456178)
(-0.0585650777692 0.195842961454 0.0404407358784)
(-0.0542098895721 0.266688199677 0.0535037498202)
(-0.0473003789441 0.239873592291 0.047193436336)
(-0.0300236097643 0.12538365794 0.0329749526099)
(-0.0403261604974 0.167931358802 0.0303940246598)
(-0.0498058293435 0.237579078156 0.0569619665819)
(-0.0550592475456 0.265213113903 0.0469464489607)
(-0.0331880153727 0.156108299922 0.0315157501977)
(-0.0575704827752 0.260072132892 0.0581600584374)
(-0.0425692694027 0.132852605484 0.0257771169025)
(-0.0499127378001 0.222744851437 0.0475414455623)
(-0.0450599112522 0.116718922661 0.0278306677678)
(-0.0555216710157 0.257885980753 0.0537639265446)
(-0.0545921336572 0.224263746516 0.0509030580232)
(-0.0527503963042 0.158423525396 0.035104088685)
(-0.0348358410461 0.167212509101 0.0341195310876)
(-0.0371273429379 0.153872225693 0.0303637370561)
(-0.0163861931712 0.0402016745748 0.0128626599244)
(-0.031148455388 0.0953625670344 0.0266117399263)
(-0.030668943173 0.140637916539 0.0252505283167)
(-0.0369889436792 0.185820821561 0.0406607547823)
(-0.0233799295379 0.0606867629421 0.0185431566837)
(-0.0350858974046 0.193587260899 0.0481486506171)