/*--------------------------------*- C++ -*----------------------------------*\
| =========                 |                                                 |
| \\      /  F ield         | OpenFOAM: The Open Source CFD Toolbox           |
|  \\    /   O peration     | Version:  2406                                  |
|   \\  /    A nd           | Website:  www.openfoam.com                      |
|    \\/     M anipulation  |                                                 |
\*---------------------------------------------------------------------------*/
FoamFile
{
    version     2.0;
    format      ascii;
    arch        "LSB;label=32;scalar=64";
    class       volScalarField::Internal;
    location    "0.01";
    object      V0;
}
// * * * * * * * * * * * * * * * * * * * * * * * * * * * * * * * * * * * * * //

dimensions      [0 3 0 0 0 0 0];

value           nonuniform List<scalar> 
29768
(
2.92582075407e-11
4.00020879899e-12
2.92517881322e-11
2.91959469816e-11
2.86027996027e-11
2.91310801479e-11
2.84591361119e-11
7.42968677215e-12
2.90891662588e-11
3.04600845276e-12
2.194564084e-11
2.87059524033e-12
2.686763521e-12
1.85374124182e-09
2.45249371491e-11
2.81673816983e-11
2.05936713777e-11
2.8485731385e-11
2.93974713401e-11
2.70101334025e-11
2.03416347428e-11
2.89079823731e-11
2.73004001141e-11
2.73955054745e-11
2.45847629072e-12
4.55483700968e-13
2.24328263091e-11
4.298002254e-13
2.32488651173e-11
3.95438758639e-13
2.88640235002e-12
3.6424255287e-12
2.54781858242e-12
4.224448368e-13
3.6424255287e-12
2.77944523202e-12
3.95576943173e-13
2.49900900256e-12
2.7596441745e-12
2.49493202053e-12
4.5167171616e-13
2.44004533002e-12
4.2250972848e-13
2.73046250747e-12
2.5907523981e-11
2.83305461685e-11
2.83116154717e-11
2.56448954617e-11
3.48201858176e-12
2.55317628067e-11
2.51712646361e-12
4.224448368e-13
2.34632412517e-11
4.18331900175e-13
2.92909523842e-12
3.6424255287e-12
2.81215300895e-12
4.55331271304e-13
2.0993163268e-11
2.47707444543e-11
1.70512656482e-12
2.52383083263e-11
2.88317291375e-11
2.73208071556e-12
2.72374750592e-11
2.03325410883e-12
2.7779330106e-11
2.41448177945e-11
1.33214136941e-12
2.82344220571e-11
2.09487434745e-12
2.83580832757e-11
2.99580387046e-11
1.30746046456e-12
3.03376101694e-12
1.22526202655e-12
2.69394399426e-12
8.77629346253e-13
1.94720597726e-12
1.77154013371e-12
2.76201593098e-11
2.75912301185e-11
2.45366634632e-11
2.91944457894e-11
2.42473099447e-11
3.00364435529e-12
2.29567724448e-12
2.28636743883e-12
4.55431114215e-13
2.25168576147e-12
2.26829607526e-12
2.37850228015e-11
2.32429485112e-12
2.24492773769e-11
2.03357865411e-12
2.76211827923e-11
2.62242476702e-11
2.11677894874e-12
1.59407226775e-12
2.6045765199e-11
1.68511997855e-12
1.94383104722e-12
2.51376912056e-11
1.96742000488e-12
2.30298831174e-11
2.85858915599e-12
2.6978078291e-11
2.70315915778e-11
2.26721712922e-11
2.38760797056e-11
2.76681405288e-11
2.4579146778e-11
2.72012486739e-11
2.48892895523e-11
2.3421960197e-11
2.83429974999e-11
2.57838871803e-11
3.64225599528e-12
4.53629215755e-13
3.64225599528e-12
4.67856657405e-13
3.64225599528e-12
3.64225599528e-12
4.5535935123e-13
4.516023456e-13
3.64225599528e-12
4.52896220433e-13
3.64225599528e-12
3.64225599528e-12
4.5535935123e-13
3.64225599528e-12
4.65495259477e-13
3.64225599528e-12
4.5167171616e-13
3.64225599528e-12
4.516023456e-13
3.64225599528e-12
4.560445161e-13
3.64225599528e-12
4.555966863e-13
4.30512314032e-13
4.552470342e-13
4.552470342e-13
3.97118275912e-13
4.552470342e-13
4.555966863e-13
4.2637547715e-13
4.552470342e-13
4.552470342e-13
4.559463384e-13
4.5531696462e-13
4.552470342e-13
4.5531696462e-13
4.552470342e-13
4.5542186025e-13
4.5531696462e-13
4.55491817525e-13
4.552470342e-13
3.64278047343e-12
3.64225599528e-12
4.44897845387e-13
4.516023456e-13
3.64278052615e-12
3.64225599528e-12
4.18638351087e-13
4.5577151235e-13
4.29966212493e-13
4.5531696462e-13
3.64452889605e-12
3.95107244019e-13
4.552470342e-13
4.5577151235e-13
4.5531696462e-13
4.516023456e-13
3.64225599528e-12
4.55841523335e-13
4.09948727901e-13
2.78302660983e-12
2.70054883234e-11
2.79881450295e-11
1.46655802392e-11
3.03936027282e-12
2.78339258237e-11
2.82117813962e-11
1.39114322804e-11
2.86645790076e-11
2.74663312652e-11
1.27992533086e-11
2.90767737153e-11
2.82682970687e-11
2.83322812199e-11
2.44617465036e-12
2.37409505574e-11
2.44047713381e-12
2.32262619401e-11
2.85978405287e-11
2.83229694747e-11
2.52658065161e-11
4.65650106144e-13
2.23460253366e-11
2.27575275636e-11
4.5167171616e-13
2.74757431136e-11
2.62952786241e-11
2.8114076317e-11
2.6400122804e-11
2.16032588816e-12
3.25402572886e-12
2.48558095672e-12
3.240229917e-12
2.16714628648e-12
3.25619461254e-12
2.82898834096e-12
2.9353973372e-12
2.53153357851e-12
4.55190141344e-13
2.29896812153e-12
2.47622322891e-12
2.76887617305e-12
4.3709072232e-13
3.9526514846e-13
4.65434840255e-13
3.64225599528e-12
2.36130223248e-12
2.26466635093e-11
2.29703330183e-11
4.18011966225e-13
3.3592041358e-12
3.0030875324e-11
7.54097268388e-13
3.1841895234e-12
3.13826232122e-12
1.33248383159e-12
2.24427302402e-11
4.443129684e-13
1.8450219454e-12
2.57172784795e-11
3.64225599528e-12
2.49137345732e-12
2.3854428979e-11
3.95280115373e-13
4.67556718335e-13
2.28354703368e-11
2.23451011251e-11
3.22820988857e-12
2.80896546756e-11
2.87716652519e-11
2.85202235335e-11
2.92705046855e-11
2.89822911559e-11
2.81867742995e-11
2.90376100215e-11
2.84133612923e-11
2.77713036674e-11
2.7831671893e-11
3.64225599528e-12
4.516023456e-13
3.64225599528e-12
4.516023456e-13
3.64225599528e-12
3.64225599528e-12
2.97175413315e-12
3.06403558443e-12
1.28201370218e-12
7.21509755672e-13
6.7061049232e-13
3.03074110458e-12
3.09230011506e-12
1.08115890223e-12
3.09103529683e-12
2.65302480052e-12
2.14693945882e-12
3.18966903662e-12
1.95741423599e-12
1.62667165468e-12
1.28630219747e-12
1.24985508669e-12
3.037533129e-12
2.79586926681e-12
3.16424744751e-12
1.76554247819e-12
2.10231975064e-12
4.29734214e-13
1.30392333206e-12
2.84863618006e-12
3.27498786431e-12
1.67785123484e-12
3.17112096534e-12
3.39913661828e-12
7.22233954107e-13
2.97660634438e-12
1.20893449851e-12
3.05530554198e-12
3.24328864259e-12
2.4383905783e-12
1.38946081489e-12
2.20365194716e-12
2.30591755488e-12
1.4705551531e-12
2.4076594605e-12
2.07823040807e-12
4.552470342e-13
4.5531696462e-13
3.91527329775e-13
4.552470342e-13
4.5531696462e-13
4.29768435443e-13
4.5531696462e-13
4.552470342e-13
4.552470342e-13
4.44370622587e-13
4.5531696462e-13
4.09611672697e-13
4.552470342e-13
4.5531696462e-13
4.5531696462e-13
4.552470342e-13
3.64225599528e-12
3.64225599528e-12
4.516023456e-13
4.5167171616e-13
3.64225599528e-12
3.64295535418e-12
4.29734214e-13
4.559463384e-13
4.5531696462e-13
4.5531696462e-13
4.552470342e-13
3.95438758639e-13
4.552470342e-13
4.516023456e-13
3.64225599528e-12
3.64225599528e-12
4.5601637624e-13
4.18331900175e-13
4.559463384e-13
4.4506383248e-13
4.5531696462e-13
4.552470342e-13
3.64435406802e-12
4.18638351087e-13
3.64505342692e-12
3.6419762736e-12
4.51775772e-13
4.552470342e-13
4.65812446832e-13
3.64389547513e-12
3.64225599528e-12
3.64225599528e-12
4.521226248e-13
4.263542871e-13
3.6419762736e-12
3.64225599528e-12
4.53015991208e-13
3.64285428887e-12
2.7980908807e-11
2.78216637972e-11
2.73143745527e-11
2.74957576432e-11
2.76089192717e-11
2.90128320343e-11
1.89784833086e-11
2.26124156824e-10
2.21583655497e-10
1.28304399119e-11
1.59060853927e-11
5.31280712658e-12
2.4886051105e-11
2.95546451572e-11
1.01115259871e-11
1.94216612523e-11
1.70019101937e-11
2.15296911191e-11
2.22091590565e-11
4.45060082901e-12
2.28195321035e-11
1.81553352775e-11
2.85929883735e-11
2.79242188476e-11
2.85234244139e-11
2.79628905571e-11
2.84633109167e-11
2.95247096223e-11
2.89967010215e-11
2.56435149572e-11
2.01601221636e-11
2.93272193982e-11
2.88664413412e-11
3.10208945882e-11
3.20745672435e-11
2.92497351373e-11
2.92181244662e-11
2.89832212008e-11
2.53681911007e-11
2.43365362216e-11
3.05355121404e-11
2.57669794783e-11
2.91125767369e-11
2.85728967345e-11
2.88917999984e-11
3.10338241601e-11
2.77651614921e-11
3.31096895311e-11
2.79559669538e-11
1.42451228524e-11
1.54018179201e-11
1.5004180976e-11
1.48789239843e-11
1.19470490132e-11
1.76822978933e-11
1.12941895866e-11
1.61418772582e-11
1.64885208315e-11
1.35771756251e-11
1.56212606069e-11
2.8557358165e-11
2.83939153524e-11
2.79540985032e-11
2.83532242228e-11
2.42260645692e-11
3.47561867656e-12
2.85718592957e-12
2.57618359315e-11
2.62774468391e-11
2.63014876298e-11
2.56814957597e-11
4.552470342e-13
4.5535935123e-13
4.5531696462e-13
4.552894143e-13
4.552470342e-13
4.5531696462e-13
4.52931815308e-13
4.516023456e-13
4.5531696462e-13
4.552470342e-13
4.560445161e-13
4.552470342e-13
4.4438121924e-13
4.5531696462e-13
4.443129684e-13
4.5531696462e-13
4.552470342e-13
4.516023456e-13
4.224448368e-13
4.1831609281e-13
4.224448368e-13
4.224448368e-13
4.29734214e-13
3.95407722223e-13
4.5566667043e-13
3.51595671073e-12
4.68822210255e-13
4.559887836e-13
3.64382955108e-12
3.64225599528e-12
4.5431185579e-13
4.682474391e-13
4.058947893e-13
4.224448368e-13
4.552470342e-13
4.552470342e-13
4.682474391e-13
4.058947893e-13
4.5566667043e-13
4.61788830822e-13
3.64225599528e-12
3.6424255287e-12
3.64347987112e-12
4.5531696462e-13
4.68910948045e-13
3.64364556518e-12
3.642145794e-12
2.83566959574e-12
2.65656021162e-12
2.70846955822e-12
3.6424255287e-12
3.64284513075e-12
4.224448368e-13
4.18202272871e-13
4.2250972848e-13
4.2250972848e-13
4.29734214e-13
3.95451617018e-13
3.6424255287e-12
2.63684956349e-12
3.6424255287e-12
4.516023456e-13
4.5167171616e-13
4.5167171616e-13
4.516023456e-13
3.6424255287e-12
2.70720706411e-12
3.6424255287e-12
4.516023456e-13
4.298002254e-13
4.4438121924e-13
4.443129684e-13
4.552470342e-13
4.5531696462e-13
4.5167171616e-13
4.516023456e-13
4.5531696462e-13
4.552470342e-13
4.516023456e-13
4.52885875518e-13
3.91392707625e-13
4.56086568243e-13
4.67870958672e-13
4.55431114215e-13
4.67556718335e-13
4.09996585684e-13
4.5531696462e-13
4.29734214e-13
4.552470342e-13
4.65862754939e-13
4.18331900175e-13
3.04062399794e-12
1.51034470264e-12
2.10720404299e-12
1.30017766653e-11
4.5355954455e-13
3.6419762736e-12
3.3039541971e-12
3.67270989602e-12
4.443129684e-13
4.26252324225e-13
3.6419762736e-12
3.6419762736e-12
3.64225599528e-12
3.3819074485e-12
3.48369420486e-12
4.67119650662e-13
4.552470342e-13
4.552470342e-13
3.64225599528e-12
4.552894143e-13
3.64225599528e-12
2.99377789763e-12
3.70904036006e-12
2.88553348917e-12
3.69227881483e-12
4.552894143e-13
3.64225599528e-12
3.03803000875e-12
3.642145794e-12
2.55521252199e-12
2.44363075746e-12
2.98375474312e-12
2.92153017988e-12
2.46326828552e-12
2.38533172208e-12
2.26908924183e-12
2.35154593041e-12
2.95133136072e-12
1.99448430053e-12
2.80684623249e-12
3.26274851165e-12
2.85704420007e-12
3.26181876541e-12
2.99265378352e-12
3.21931728123e-12
3.29295142981e-12
2.14847475722e-12
3.00315242545e-12
3.13028793455e-12
3.19492208412e-12
2.85991167924e-12
3.22112565891e-12
2.76658219229e-12
2.8240612209e-12
1.9873792564e-12
3.18642579001e-12
3.11365112969e-12
2.53457109629e-12
3.13571467892e-12
2.91148414496e-12
1.26136541508e-12
2.08319694625e-12
2.76850410265e-12
3.15816915976e-12
1.94903455518e-12
3.07188815833e-12
3.30907713973e-12
1.36622866918e-12
2.68451847902e-12
2.99387821076e-12
3.29874902097e-12
1.77378931009e-12
2.85767608492e-12
1.18466754817e-12
2.45893341706e-12
9.89899581442e-13
2.52861120547e-12
2.6946635769e-12
1.27457451081e-12
3.2816822691e-12
2.82495321205e-12
2.91787026961e-12
3.12777145377e-12
3.23423922429e-12
3.24093568148e-12
2.60782797168e-12
2.79505285382e-12
1.92481329798e-12
3.15291978807e-12
2.10430514881e-12
3.19735762029e-12
3.23237902331e-12
2.62738589342e-12
1.05513143947e-12
2.41304035229e-12
1.8250717952e-12
2.73987749946e-12
2.58888549173e-12
3.21808324372e-12
3.01174340471e-12
2.67392661202e-12
2.60968355665e-12
3.20297893601e-12
3.28878959241e-12
2.92019266771e-12
3.24908808742e-12
2.85185212582e-12
3.26530620173e-12
3.15745713031e-12
3.3200879137e-12
3.19717923936e-12
3.07129968082e-12
4.552470342e-13
4.00966244133e-13
3.6419762736e-12
3.0960973395e-12
2.55599716942e-12
2.96025134063e-12
3.64225599528e-12
4.521226248e-13
3.6443540702e-12
3.03044877066e-12
3.67171623978e-12
2.84875415259e-12
3.62152035538e-12
4.444863948e-13
4.552470342e-13
3.642955352e-12
3.3191095035e-12
4.20205321935e-13
3.6419762736e-12
3.50707054555e-12
2.53430077469e-12
3.13916092591e-12
2.20413829807e-12
2.45704933278e-12
2.87696015786e-12
2.45428122516e-12
2.7039924328e-12
2.45067354341e-12
2.69229179402e-12
2.37627512821e-12
2.51644158191e-12
2.14007012181e-12
2.68909142347e-12
2.72210741963e-12
2.7766060617e-12
2.14314975495e-12
3.03721984719e-12
2.02213811765e-12
2.87438117732e-12
2.98729716025e-12
2.06242239445e-12
2.56459022967e-12
3.17505224321e-12
1.69643924936e-12
1.4091750741e-12
2.96654308579e-12
2.75530247444e-12
1.45259640833e-12
2.60681203993e-12
1.96645075741e-12
2.59512020572e-12
1.45441375686e-12
2.89242024805e-12
2.63713731433e-12
1.60877059993e-12
2.56195762388e-12
2.06290424575e-12
2.51081003163e-12
1.2225361327e-12
2.41937114408e-12
2.79687725942e-12
2.02434974203e-12
3.08700599417e-12
1.90821230418e-12
3.12270381732e-12
1.97734188987e-12
2.86994225e-12
3.03485137337e-12
3.07452067879e-12
3.35016579278e-12
3.05922487136e-12
2.98151652418e-12
3.21417124316e-12
3.27143603559e-12
3.09806519519e-12
4.5531696462e-13
4.552894143e-13
4.552470342e-13
4.5535935123e-13
4.552470342e-13
4.680126333e-13
4.5531696462e-13
4.5355954455e-13
4.5531696462e-13
4.552470342e-13
4.67940753e-13
4.5531696462e-13
4.552470342e-13
4.67414429265e-13
4.52931815308e-13
4.552470342e-13
4.5531696462e-13
4.65549275497e-13
4.552470342e-13
4.65549275498e-13
4.5531696462e-13
4.67414429265e-13
4.5531696462e-13
4.552470342e-13
4.67856657405e-13
4.5531696462e-13
4.5167171616e-13
4.516023456e-13
4.552470342e-13
4.552470342e-13
4.5531696462e-13
4.55483700967e-13
4.5531696462e-13
4.552470342e-13
4.65484507449e-13
4.55431114215e-13
4.5531696462e-13
4.552470342e-13
4.55367124847e-13
4.5531696462e-13
4.552894143e-13
4.552470342e-13
4.5535935123e-13
4.552470342e-13
4.5535935123e-13
4.5531696462e-13
4.552894143e-13
4.5531696462e-13
4.552470342e-13
4.552894143e-13
4.5531696462e-13
4.552470342e-13
4.552894143e-13
4.6746812139e-13
4.552470342e-13
4.5531696462e-13
4.5535935123e-13
4.552470342e-13
4.5167171616e-13
4.5531696462e-13
4.516023456e-13
4.5531696462e-13
4.552470342e-13
4.516023456e-13
4.5531696462e-13
4.5167171616e-13
4.516023456e-13
4.552470342e-13
4.552470342e-13
4.5531696462e-13
4.5167171616e-13
4.5531696462e-13
4.552470342e-13
4.55483700968e-13
4.516023456e-13
4.5531696462e-13
4.552470342e-13
4.5167171616e-13
4.29734214e-13
4.51775772e-13
4.446560888e-13
4.443129684e-13
4.2250972848e-13
4.26163144767e-13
4.30481246197e-13
4.2637547715e-13
4.26152548115e-13
4.263542871e-13
4.18364158034e-13
4.552470342e-13
4.552470342e-13
4.552470342e-13
4.552470342e-13
4.552470342e-13
4.552470342e-13
4.552470342e-13
4.2250972848e-13
4.30259759912e-13
4.22043429785e-13
4.30132199587e-13
4.263542871e-13
3.95438758639e-13
4.531915017e-13
4.521226248e-13
4.519491984e-13
4.531915017e-13
4.6831936651e-13
4.2250972848e-13
4.552470342e-13
4.12506727404e-13
4.5531696462e-13
4.6580870644e-13
4.0595713873e-13
4.5326111637e-13
4.4411464332e-13
4.44720659373e-13
4.50012757588e-13
4.5531696462e-13
4.552470342e-13
4.552470342e-13
4.5531696462e-13
4.298002254e-13
4.516023456e-13
4.370235912e-13
4.4438121924e-13
4.18011966225e-13
4.2250972848e-13
4.09359927258e-13
4.18170039875e-13
4.552470342e-13
4.5531696462e-13
4.5531696462e-13
4.552470342e-13
4.5531696462e-13
4.552470342e-13
4.552470342e-13
4.2250972848e-13
4.224448368e-13
4.67381892285e-13
4.5531696462e-13
4.65517202703e-13
4.552470342e-13
4.5531696462e-13
4.552470342e-13
4.552470342e-13
4.5531696462e-13
4.552470342e-13
4.5531696462e-13
4.5531696462e-13
4.5531696462e-13
4.552470342e-13
4.552470342e-13
4.5531696462e-13
4.5167171616e-13
4.516023456e-13
4.443129684e-13
4.5167171616e-13
4.516023456e-13
4.5167171616e-13
4.4438121924e-13
4.29734214e-13
4.552470342e-13
4.5531696462e-13
4.5531696462e-13
4.552470342e-13
4.5167171616e-13
4.516023456e-13
4.5167171616e-13
4.516023456e-13
4.516023456e-13
4.518451692e-13
4.5167171616e-13
4.55778162375e-13
4.5167171616e-13
4.5267489938e-13
4.55587197975e-13
4.56260021282e-13
4.552470342e-13
4.5167171616e-13
4.5566667043e-13
4.37370444e-13
4.5531696462e-13
4.552470342e-13
4.516023456e-13
4.5531696462e-13
4.5167171616e-13
4.552470342e-13
4.443129684e-13
4.5531696462e-13
4.552470342e-13
4.5167171616e-13
4.5531696462e-13
4.67914679558e-13
4.3029818668e-13
4.29734214e-13
4.55491817525e-13
4.552470342e-13
4.4438121924e-13
4.56086568242e-13
4.516023456e-13
4.5167171616e-13
4.55431114215e-13
4.6546319001e-13
4.18044174939e-13
4.5566667043e-13
4.227692952e-13
4.67435581098e-13
4.559463384e-13
4.09327905182e-13
4.67870958672e-13
4.65453297085e-13
4.18204350965e-13
4.55519999307e-13
4.67964285742e-13
3.91392707625e-13
4.65434840255e-13
4.56005923135e-13
4.52573248184e-13
4.55504334847e-13
3.95438758639e-13
4.5531696462e-13
4.4438121924e-13
4.552470342e-13
4.370235912e-13
4.5531696462e-13
4.552470342e-13
4.298002254e-13
4.67627916608e-13
4.6614913331e-13
3.91565838943e-13
4.224448368e-13
4.68246904857e-13
4.552470342e-13
4.18380344064e-13
2.88493957261e-12
2.93809564069e-12
2.48226022039e-12
1.81285163233e-12
2.50740420111e-12
1.71719057068e-11
3.52196164117e-12
1.4643370699e-11
2.69040301071e-11
2.47948585444e-11
3.09503231844e-12
2.51373891592e-11
2.72801099287e-11
2.76252791199e-11
2.52512529956e-11
2.57042534157e-11
2.74626490608e-11
2.81715360675e-11
2.73615206902e-11
2.80107347874e-11
2.60127951989e-11
2.69706741494e-11
8.41739133529e-12
1.39576283363e-11
1.07555330978e-11
1.03376748006e-11
1.40690626333e-11
1.52206103467e-11
1.50485582522e-11
1.46385242986e-11
1.7851229891e-11
1.31446978518e-11
1.39203148109e-11
1.6578849513e-12
2.88169010034e-12
1.73721937578e-11
1.76815290426e-11
3.01239250298e-12
1.66180316269e-11
2.59754442208e-11
2.83430554682e-11
2.55883701669e-11
2.5254011816e-11
2.76739781828e-11
2.47397932538e-11
2.76555388869e-11
1.58902178486e-11
1.54183483184e-11
1.60373902615e-11
1.19984814941e-11
1.72894429044e-11
1.48535715312e-11
1.64904933462e-11
2.85926790145e-11
2.80672846918e-11
2.84136075287e-11
2.83861375664e-11
2.82640263937e-11
2.81496574781e-11
2.7580822177e-11
1.52787028931e-11
1.40917038026e-11
1.49529841289e-11
1.26517562166e-11
2.81897680323e-11
2.83267995357e-11
2.71793779679e-11
1.58081284996e-11
1.44956718914e-11
1.5138590639e-11
1.40878115831e-11
1.53979109307e-11
1.47684635542e-11
1.4447945352e-11
2.86901436574e-11
2.81235796071e-11
2.87143806037e-11
3.20232193242e-11
3.09643056321e-11
2.73585739694e-11
3.07506518006e-11
2.83581039273e-11
2.78632962494e-11
2.78017180018e-11
2.7758959552e-11
2.7963036843e-11
2.72848259704e-11
2.74706900689e-11
3.6424255287e-12
2.45671508731e-12
2.54089660359e-12
3.6424255287e-12
2.57609273297e-12
3.6424255287e-12
3.6424255287e-12
2.90079323369e-11
2.69043343052e-11
2.64568314542e-11
2.52079269671e-11
2.6891094212e-11
2.7207893317e-11
3.2678630295e-12
2.70426986121e-12
2.60859456483e-11
2.59205715747e-11
4.55348968739e-13
4.67435581097e-13
4.65455384131e-13
4.552470342e-13
4.5531696462e-13
4.5531696462e-13
4.552470342e-13
4.516023456e-13
4.5167171616e-13
4.516023456e-13
4.552470342e-13
4.5531696462e-13
4.5531696462e-13
4.552470342e-13
2.77036631607e-11
2.73235151263e-11
2.78482751724e-11
2.41490544849e-11
2.38444141206e-11
2.47090491643e-11
2.4563443779e-11
2.22913664814e-12
3.25674632945e-12
2.62969965804e-12
3.15699224601e-12
3.28880616193e-12
2.86642103569e-12
2.06877782906e-12
2.46208093268e-12
1.55964396019e-12
1.10260256961e-12
9.19730181036e-13
2.37765383425e-12
2.67954917188e-12
1.16562825447e-12
2.79147963168e-12
2.66402723451e-12
3.20436851155e-12
3.16882322854e-12
3.24660406278e-12
2.91662213242e-12
2.02064787336e-12
3.10696101947e-12
1.91615529967e-12
1.89383208066e-12
1.96870573126e-12
2.64893844203e-12
2.95909300925e-12
1.84670868188e-12
9.66297382104e-13
1.75773609128e-12
2.72493508172e-12
2.77461386876e-12
2.45437851306e-12
1.28981566111e-12
1.30336527707e-12
4.2246734187e-13
4.224024567e-13
4.18011966225e-13
4.2250972848e-13
3.6424255287e-12
2.47487927624e-12
2.55279321633e-12
3.6424255287e-12
3.6424255287e-12
2.57670755611e-12
2.60805164762e-12
3.6424255287e-12
2.64155433898e-12
3.6424255287e-12
3.6424255287e-12
4.370235912e-13
4.4438121924e-13
4.298002254e-13
4.516023456e-13
3.6424255287e-12
2.61376565904e-12
2.62367569658e-12
3.6424255287e-12
4.5167171616e-13
4.516023456e-13
4.516023456e-13
4.55367124847e-13
4.55483700967e-13
4.55431114215e-13
4.55431114215e-13
4.55483700967e-13
4.516023456e-13
4.552470342e-13
4.5531696462e-13
4.552470342e-13
4.5531696462e-13
4.516023456e-13
4.5167171616e-13
4.5167171616e-13
4.516023456e-13
4.443129684e-13
4.18364158034e-13
4.29734214e-13
4.552470342e-13
4.5531696462e-13
4.552470342e-13
4.67610434003e-13
4.18044174939e-13
3.9529542898e-13
4.65455384131e-13
4.65473421985e-13
4.55348968739e-13
4.67435581098e-13
4.55154278922e-13
4.67556718335e-13
4.6543487092e-13
4.552470342e-13
4.552470342e-13
4.552470342e-13
4.552470342e-13
3.28740759764e-12
4.6877857047e-13
3.64382955108e-12
4.65794326143e-13
3.64225599528e-12
3.24442289274e-12
3.64225599528e-12
4.224448368e-13
4.224448368e-13
4.224448368e-13
4.552470342e-13
4.67381892285e-13
4.552470342e-13
4.552470342e-13
3.64225599528e-12
3.64347987112e-12
4.6796844193e-13
3.64505342692e-12
2.77336241772e-12
3.19609747047e-12
3.38286433048e-12
1.16836025256e-12
1.73078084192e-12
1.59971465747e-12
2.66643495635e-12
3.20313176603e-12
2.81261209104e-12
1.23173120306e-12
1.28383509665e-12
1.45146247978e-12
3.25444561243e-12
3.64225599528e-12
3.45750792781e-12
2.57949181512e-12
2.54283248468e-12
3.21950998052e-12
4.52299419406e-13
4.552470342e-13
3.64225599528e-12
4.25828523225e-13
4.32358964575e-13
4.552470342e-13
4.552470342e-13
3.64225599528e-12
3.64225599528e-12
4.552470342e-13
3.6419762736e-12
3.64225599528e-12
2.79642185742e-11
2.82049497568e-11
2.80422922225e-11
2.5374896508e-11
2.50783877494e-11
2.67275087941e-11
2.68295291865e-11
2.94763471196e-11
2.8593490714e-11
2.90054629072e-11
2.94046475505e-11
2.73999282664e-11
2.92592747697e-11
2.84169151162e-11
2.81622231868e-11
2.90859723568e-11
2.9172872678e-11
2.73594833365e-11
2.87777854015e-11
2.94004567484e-11
2.87076375358e-11
2.94123776284e-11
2.86719623731e-11
2.96004720976e-11
2.87732747436e-11
2.6786239684e-11
2.97237910933e-11
2.75862414181e-11
2.74286081218e-11
2.79672382387e-11
2.7962143676e-11
2.50187076648e-11
2.5639324001e-11
2.5742322976e-11
2.49162022771e-11
2.96545999225e-11
2.84958579219e-11
2.88312232882e-11
2.98691783938e-11
2.65787885462e-11
2.7665011812e-11
2.48082215892e-11
4.55483700967e-13
4.560445161e-13
4.52931815308e-13
4.5531696462e-13
4.552470342e-13
4.552470342e-13
4.5531696462e-13
4.5531696462e-13
4.67381892285e-13
4.552470342e-13
4.5531696462e-13
4.67845622882e-13
4.65527547635e-13
4.5531696462e-13
4.552470342e-13
4.5167171616e-13
4.55413771575e-13
4.5167171616e-13
4.5531696462e-13
4.552470342e-13
4.552470342e-13
4.5531696462e-13
4.5167171616e-13
4.516023456e-13
4.552470342e-13
4.5531696462e-13
4.55314166405e-13
4.55483700968e-13
4.5531696462e-13
4.552470342e-13
4.3700240115e-13
3.9031911184e-13
4.52105487225e-13
4.552470342e-13
4.552470342e-13
3.46788528786e-12
3.65666695199e-12
4.516023456e-13
4.52105487225e-13
4.552470342e-13
3.44110323115e-12
2.21856469909e-12
2.93180436056e-12
2.50201300984e-12
1.90945876679e-12
2.6250666709e-12
3.04986228477e-12
2.94048226538e-12
2.75894329221e-12
1.44742138895e-12
2.66643836084e-12
2.53686422137e-12
2.15029279242e-12
1.94414609941e-12
2.96626337135e-12
1.734573721e-12
1.67564054022e-12
1.32511407729e-12
1.59473285793e-12
2.78366296106e-12
3.18561342104e-12
3.13726095308e-12
2.88708291286e-12
3.28939299273e-12
2.86178179733e-12
2.95299598817e-12
1.22287584625e-12
1.61617579724e-12
1.48901544329e-12
1.32670329001e-12
1.25018348405e-12
1.51550717511e-12
1.19644989877e-12
1.57290063578e-12
2.92229424564e-12
3.24405117123e-12
1.40540949189e-12
2.07095863609e-12
3.15424175317e-12
3.26039686677e-12
2.74208863452e-12
1.54603640842e-12
1.40967029161e-12
1.46397931743e-12
1.5201395266e-12
1.9058216051e-12
1.74203401174e-12
1.73841392711e-12
1.90952653959e-12
1.7636129948e-12
1.35772979278e-12
7.16119121697e-13
1.82783651838e-12
1.92406181086e-12
1.53539827715e-12
1.94682456981e-12
1.34786493366e-12
1.21702084896e-12
1.53391432886e-12
1.05665537773e-12
1.47064841884e-12
1.3198885886e-12
1.1611832715e-12
2.80145057531e-12
2.1340184733e-12
1.41409097431e-12
1.39685553831e-12
3.13609971509e-12
2.09978260723e-12
2.92863568599e-12
1.07579314812e-12
2.28448047966e-12
2.9624798017e-12
9.47660768088e-13
2.71481564805e-12
1.59884375339e-12
8.34513874935e-13
2.06597140411e-12
2.14270164671e-12
1.96192993785e-12
6.68799807871e-13
1.72628677134e-12
2.8290397988e-12
3.1975658699e-12
3.19061605257e-12
2.62697302088e-12
2.97205900859e-12
2.50732355449e-12
1.66493204534e-12
2.05973315508e-12
1.83668415474e-12
7.31157960625e-13
6.84096552513e-13
1.08918567584e-12
1.43429310076e-12
1.23847752603e-12
1.89873152664e-12
1.71081231426e-12
7.3863373959e-13
1.31209285126e-12
1.2542288179e-12
7.03089945191e-13
1.23372651574e-12
1.15831382207e-12
1.53431407112e-12
1.62816395808e-12
1.78188066584e-12
1.35307529635e-12
1.2925085409e-12
1.35282192216e-12
1.07873452167e-12
1.42622786206e-12
1.33797099337e-12
1.61724028447e-12
1.21514672512e-12
2.59909725707e-12
3.08778046659e-12
3.02818766961e-12
1.25878822129e-12
3.23689648103e-12
1.81413988853e-12
1.88360951665e-12
2.86653050899e-12
2.90037100369e-12
3.11176699277e-12
3.21706837875e-12
3.21022787043e-12
2.91623750957e-12
2.69745694461e-12
6.71060038377e-13
7.51767674845e-13
1.70448866173e-12
1.90506417536e-12
1.90553826345e-12
1.83843303727e-12
1.45251178886e-12
1.55819172947e-12
1.22539531585e-12
1.21622988023e-12
7.5676464286e-13
1.08775266165e-12
1.15130156963e-12
4.552470342e-13
4.552470342e-13
3.69943896378e-12
3.70753501463e-12
3.25140430152e-12
3.64225599528e-12
4.559463384e-13
3.69265036193e-12
3.42172941978e-12
2.5664791399e-12
2.54190967807e-12
2.9231385031e-12
2.12786585572e-12
3.13808835357e-12
1.45038752587e-12
2.89232380963e-12
2.28457934456e-12
3.20337965516e-12
1.81983717957e-12
7.75274098003e-13
2.7031854124e-12
2.29957880311e-12
1.20422641789e-12
1.48949615585e-12
2.43779598989e-12
2.53077674299e-12
2.16599808433e-12
2.19944482401e-12
8.15805341559e-13
7.22869739003e-13
2.0505468719e-12
1.55597466908e-12
1.77906619847e-12
1.82316546086e-12
6.8080231529e-13
2.19674234948e-12
2.07843526775e-12
1.95550985308e-12
2.14704427531e-12
2.24474620738e-12
1.94485993139e-12
2.00998585078e-12
2.22854436413e-12
2.06619010133e-12
1.66167029833e-12
3.18386705981e-12
1.49832703134e-12
1.74558281224e-12
1.87946882852e-12
1.65326111124e-12
3.13185062938e-12
1.9919089536e-12
2.42933648567e-12
2.6247066147e-12
1.27224631813e-12
2.78261765468e-12
1.55289181653e-12
1.97002026807e-12
1.68754358742e-12
1.16916575223e-12
1.23896529244e-12
6.69896892826e-13
2.03376934432e-12
2.88675030536e-12
3.04604979161e-12
2.13378831139e-12
2.29335589357e-12
2.12481199548e-12
2.02393839881e-12
1.27041463709e-12
1.71942296383e-12
1.62285083798e-12
1.33104926278e-12
7.49982409305e-13
1.24130602487e-12
2.11067544142e-12
2.04413643895e-12
1.76611514559e-12
1.65038420718e-12
1.8963585041e-12
6.71119399842e-13
1.07358797288e-12
7.5669606582e-13
1.27730045405e-12
1.3180373737e-12
2.4462252089e-12
2.27159379124e-12
1.22363868686e-12
1.14292633935e-12
2.59914755913e-12
2.40465699854e-12
1.17086225911e-12
2.22628074203e-12
1.23059242932e-12
1.88263975221e-12
1.69105375219e-12
2.66616606549e-12
2.36902693854e-12
2.09780185505e-12
2.02704836583e-12
2.02605531455e-12
2.23587939564e-12
1.86899049028e-12
2.08024455339e-12
7.19867601956e-13
4.67435581098e-13
4.552470342e-13
4.5531696462e-13
4.67381892285e-13
4.5531696462e-13
4.65455384131e-13
4.5531696462e-13
4.67381892285e-13
4.5531696462e-13
4.5531696462e-13
4.552470342e-13
4.29702428925e-13
4.2246734187e-13
3.9525381021e-13
4.0559265295e-13
4.055303595e-13
4.224448368e-13
4.3709072232e-13
4.2250972848e-13
4.370235912e-13
4.65473421985e-13
4.552470342e-13
4.5531696462e-13
4.55348968739e-13
4.552470342e-13
4.552470342e-13
4.5531696462e-13
4.5531696462e-13
4.5531696462e-13
4.552470342e-13
4.552470342e-13
4.18137754615e-13
4.09643716281e-13
4.18044174939e-13
4.1799615886e-13
3.95253506308e-13
4.298002254e-13
4.5531696462e-13
4.5531696462e-13
4.552470342e-13
4.552470342e-13
4.5531696462e-13
4.67453063703e-13
4.552470342e-13
4.552470342e-13
4.5531696462e-13
4.5531696462e-13
4.552470342e-13
4.552470342e-13
4.5531696462e-13
4.552470342e-13
4.09643716281e-13
4.18137754615e-13
3.91527329775e-13
4.18011966225e-13
4.09359927257e-13
3.95268776e-13
4.4438121924e-13
4.516023456e-13
4.516023456e-13
4.5167171616e-13
4.67381892285e-13
4.552470342e-13
4.5531696462e-13
4.52921470375e-13
4.552470342e-13
4.65517202702e-13
4.65437455105e-13
3.95409975345e-13
4.298002254e-13
4.29734214e-13
4.18060360969e-13
4.443129684e-13
4.5531696462e-13
4.552470342e-13
4.5531696462e-13
4.552470342e-13
4.5531696462e-13
4.552470342e-13
4.5531696462e-13
4.56086568242e-13
4.552470342e-13
4.5531696462e-13
4.65445059645e-13
4.52851313533e-13
4.5531696462e-13
4.67888582258e-13
4.44302373375e-13
4.5167171616e-13
4.516023456e-13
4.5531696462e-13
4.5167171616e-13
4.552470342e-13
4.5167171616e-13
4.29702428925e-13
4.44302373375e-13
4.5167171616e-13
4.552470342e-13
4.55413771575e-13
4.5531696462e-13
4.55431114215e-13
4.552470342e-13
4.5531696462e-13
4.55483700967e-13
4.5167171616e-13
4.552470342e-13
4.55331271304e-13
4.29702428925e-13
4.1816998486e-13
4.37069529015e-13
4.09312143044e-13
3.91397263019e-13
4.5531696462e-13
4.5531696462e-13
4.552470342e-13
4.552470342e-13
4.5531696462e-13
4.5531696462e-13
4.552470342e-13
4.516023456e-13
4.5167171616e-13
4.5167171616e-13
4.516023456e-13
4.5167171616e-13
4.516023456e-13
4.516023456e-13
4.5167171616e-13
4.5167171616e-13
4.370235912e-13
4.4438121924e-13
4.516023456e-13