/*--------------------------------*- C++ -*----------------------------------*\
| =========                 |                                                 |
| \\      /  F ield         | OpenFOAM: The Open Source CFD Toolbox           |
|  \\    /   O peration     | Version:  2406                                  |
|   \\  /    A nd           | Website:  www.openfoam.com                      |
|    \\/     M anipulation  |                                                 |
\*---------------------------------------------------------------------------*/
FoamFile
{
    version     2.0;
    format      ascii;
    arch        "LSB;label=32;scalar=64";
    class       volScalarField;
    location    "0";
    object      p;
}
// * * * * * * * * * * * * * * * * * * * * * * * * * * * * * * * * * * * * * //

dimensions      [0 2 -2 0 0 0 0];

internalField   uniform 0;

boundaryField
{
    wall
    {
        type            zeroGradient;
    }
    inlet
    {
        type            zeroGradient;
    }
    outlet
    {
        type            fixedValue;
        value           nonuniform List<scalar> 0();
    }
    oversetPatch
    {
        type            overset;
        value           uniform 0;
    }
    seed
    {
        type            zeroGradient;
    }
    procBoundary27to1
    {
        type            processor;
        value           uniform 0;
    }
    procBoundary27to2
    {
        type            processor;
        value           uniform 0;
    }
    procBoundary27to3
    {
        type            processor;
        value           uniform 0;
    }
    procBoundary27to4
    {
        type            processor;
        value           uniform 0;
    }
    procBoundary27to9
    {
        type            processor;
        value           uniform 0;
    }
    procBoundary27to10
    {
        type            processor;
        value           uniform 0;
    }
    procBoundary27to11
    {
        type            processor;
        value           uniform 0;
    }
    procBoundary27to12
    {
        type            processor;
        value           uniform 0;
    }
    procBoundary27to13
    {
        type            processor;
        value           uniform 0;
    }
    procBoundary27to15
    {
        type            processor;
        value           uniform 0;
    }
    procBoundary27to17
    {
        type            processor;
        value           uniform 0;
    }
    procBoundary27to18
    {
        type            processor;
        value           uniform 0;
    }
    procBoundary27to19
    {
        type            processor;
        value           uniform 0;
    }
    procBoundary27to20
    {
        type            processor;
        value           uniform 0;
    }
    procBoundary27to21
    {
        type            processor;
        value           uniform 0;
    }
    procBoundary27to23
    {
        type            processor;
        value           uniform 0;
    }
    procBoundary27to26
    {
        type            processor;
        value           uniform 0;
    }
    procBoundary27to28
    {
        type            processor;
        value           uniform 0;
    }
    procBoundary27to29
    {
        type            processor;
        value           uniform 0;
    }
}


// ************************************************************************* //
