/*--------------------------------*- C++ -*----------------------------------*\
| =========                 |                                                 |
| \\      /  F ield         | OpenFOAM: The Open Source CFD Toolbox           |
|  \\    /   O peration     | Version:  2406                                  |
|   \\  /    A nd           | Website:  www.openfoam.com                      |
|    \\/     M anipulation  |                                                 |
\*---------------------------------------------------------------------------*/
FoamFile
{
    version     2.0;
    format      ascii;
    arch        "LSB;label=32;scalar=64";
    class       volScalarField;
    location    "0.01";
    object      k_0;
}
// * * * * * * * * * * * * * * * * * * * * * * * * * * * * * * * * * * * * * //

dimensions      [0 2 -2 0 0 0 0];

internalField   nonuniform List<scalar> 
29767
(
0.237409485763
0.237433281121
0.237440921623
0.237441082522
0.237441088702
0.237441082332
0.237441083062
0.237441080749
0.237441080756
0.237441079893
0.237441079776
0.237441079455
0.23744107937
0.237441079285
0.23744109898
0.23743328111
0.239840922286
0.239884263071
0.239885299971
0.239885322602
0.239885322679
0.239885322707
0.239885322655
0.239885322644
0.239885322635
0.239885322626
0.239885322624
0.239885322628
0.239885323098
0.239885351836
0.237440921623
0.23988426307
0.23995336117
0.239956305108
0.239956425388
0.239956428836
0.239956428894
0.239956428794
0.239956428771
0.239956428731
0.239956428716
0.2399564287
0.239956428717
0.239956429494
0.239956451069
0.237441082523
0.239885299971
0.239956305108
0.239959500285
0.239959637919
0.239959642219
0.239959642292
0.239959642242
0.239959642221
0.2399596422
0.239959642189
0.239959642181
0.239959642201
0.239959642984
0.239959662993
0.237441088702
0.239885322602
0.239956425388
0.239959637919
0.239959776819
0.239959781161
0.239959781236
0.23995978118
0.239959781156
0.239959781133
0.239959781121
0.239959781111
0.239959781131
0.239959781912
0.239959801802
0.237441082332
0.239885322679
0.239956428836
0.239959642219
0.239959781161
0.239959785544
0.239959785619
0.239959785577
0.239959785556
0.239959785539
0.239959785528
0.239959785522
0.239959785542
0.239959786325
0.239959806209
0.237441083065
0.239885322707
0.239956428894
0.239959642292
0.239959781236
0.239959785619
0.239959785692
0.239959785651
0.239959785629
0.239959785612
0.2399597856
0.239959785594
0.239959785614
0.239959786397
0.239959806281
0.237441080733
0.239885322655
0.239956428794
0.239959642242
0.239959781179
0.239959785577
0.239959785651
0.239959785615
0.239959785593
0.239959785579
0.239959785568
0.239959785562
0.239959785583
0.239959786366
0.23995980625
0.237441080755
0.239885322643
0.239956428771
0.239959642221
0.239959781156
0.239959785556
0.239959785629
0.239959785593
0.239959785572
0.239959785557
0.239959785547
0.239959785541
0.239959785561
0.239959786344
0.239959806229
0.237441079892
0.239885322634
0.239956428731
0.2399596422
0.239959781133
0.239959785539
0.239959785612
0.239959785579
0.239959785557
0.239959785544
0.239959785533
0.239959785528
0.239959785549
0.239959786332
0.239959806216
0.237441079774
0.239885322625
0.239956428716
0.239959642189
0.239959781121
0.239959785528
0.2399597856
0.239959785568
0.239959785547
0.239959785533
0.239959785523
0.239959785517
0.239959785538
0.239959786321
0.239959806206
0.237441079461
0.239885322624
0.2399564287
0.239959642181
0.239959781111
0.239959785522
0.239959785594
0.239959785562
0.239959785541
0.239959785528
0.239959785517
0.239959785512
0.239959785533
0.239959786316
0.239959806201
0.237441079369
0.239885322627
0.239956428716
0.239959642201
0.239959781131
0.239959785542
0.239959785614
0.239959785583
0.239959785561
0.239959785549
0.239959785538
0.239959785533
0.239959785554
0.239959786337
0.239959806222
0.237441079276
0.239885323097
0.239956429494
0.239959642984
0.239959781912
0.239959786325
0.239959786397
0.239959786366
0.239959786344
0.239959786332
0.239959786321
0.239959786316
0.239959786337
0.23995978712
0.239959807007
0.237441098968
0.239885351836
0.239956451068
0.239959662993
0.239959801801
0.239959806209
0.239959806281
0.23995980625
0.239959806229
0.239959806216
0.239959806206
0.239959806201
0.239959806222
0.239959807007
0.23995982691
0.237387159501
0.237410166217
0.237417813163
0.237417976923
0.237417983497
0.237417976304
0.237417977078
0.237417973859
0.237417973624
0.237417975755
0.237417975503
0.237417975044
0.237417974977
0.23741797317
0.237417990937
0.237410168889
0.239832413431
0.239878166625
0.239879277355
0.239879301318
0.239879301664
0.239879301672
0.23987930164
0.23987930163
0.239879301675
0.239879301662
0.239879301669
0.239879301671
0.23987930215
0.239879333009
0.237417813165
0.239878166627
0.23995092881
0.239954067334
0.239954196601
0.239954200661
0.239954200748
0.239954200747
0.239954200744
0.239954200744
0.239954200742
0.239954200743
0.239954200769
0.23995420163
0.239954225307
0.237417976923
0.239879277356
0.239954067334
0.239957479933
0.239957628375
0.239957633283
0.239957633389
0.239957633388
0.239957633386
0.239957633383
0.239957633382
0.239957633382
0.239957633409
0.239957634276
0.239957656299
0.237417983495
0.239879301318
0.239954196601
0.239957628375
0.239957778234
0.239957783198
0.239957783308
0.239957783308
0.239957783306
0.239957783303
0.239957783302
0.239957783302
0.23995778333
0.239957784195
0.23995780609
0.237417976299
0.239879301665
0.239954200661
0.239957633283
0.239957783198
0.239957788165
0.239957788276
0.239957788275
0.239957788274
0.239957788271
0.23995778827
0.239957788269
0.239957788297
0.239957789163
0.239957811051
0.237417976651
0.239879301656
0.239954200747
0.239957633389
0.239957783308
0.239957788276
0.239957788386
0.239957788386
0.239957788384
0.239957788382
0.23995778838
0.23995778838
0.239957788408
0.239957789274
0.239957811162
0.237417977038
0.239879301685
0.239954200748
0.239957633388
0.239957783307
0.239957788275
0.239957788386
0.239957788386
0.239957788383
0.239957788381
0.239957788379
0.239957788379
0.239957788407
0.239957789273
0.239957811161
0.237417973621
0.239879301629
0.239954200743
0.239957633386
0.239957783306
0.239957788273
0.239957788384
0.239957788383
0.239957788381
0.239957788379
0.239957788378
0.239957788378
0.239957788405
0.239957789271
0.23995781116
0.237417975679
0.239879301672
0.239954200743
0.239957633383
0.239957783303
0.239957788271
0.239957788382
0.239957788381
0.239957788379
0.239957788376
0.239957788375
0.239957788375
0.239957788403
0.239957789269
0.239957811157
0.237417975492
0.239879301665
0.239954200742
0.239957633382
0.239957783302
0.239957788269
0.23995778838
0.239957788379
0.239957788378
0.239957788375
0.239957788374
0.239957788374
0.239957788402
0.239957789268
0.239957811156
0.237417973239
0.239879301635
0.239954200742
0.239957633382
0.239957783302
0.239957788269
0.23995778838
0.239957788379
0.239957788378
0.239957788375
0.239957788374
0.239957788374
0.239957788402
0.239957789268
0.239957811156
0.237417974824
0.239879301666
0.239954200768
0.239957633409
0.239957783329
0.239957788297
0.239957788407
0.239957788407
0.239957788405
0.239957788403
0.239957788402
0.239957788402
0.239957788429
0.239957789295
0.239957811184
0.23741797474
0.239879302172
0.23995420163
0.239957634276
0.239957784195
0.239957789163
0.239957789274
0.239957789273
0.239957789271
0.239957789269
0.239957789268
0.239957789268
0.239957789295
0.239957790161
0.239957812052
0.237417992784
0.239879333037
0.239954225308
0.239957656299
0.23995780609
0.239957811051
0.239957811162
0.239957811161
0.23995781116
0.239957811157
0.239957811156
0.239957811156
0.239957811184
0.239957812052
0.239957833961
0.23738704277
0.237410072173
0.237417710646
0.2374178852
0.237417888985
0.237417884591
0.237417884426
0.237417881691
0.237417881006
0.237417884203
0.237417883806
0.237417883244
0.23741788301
0.237417879675
0.237417898311
0.237410075635
0.239832357961
0.239878118166
0.239879229339
0.239879253322
0.239879253698
0.239879253702
0.23987925367
0.239879253644
0.23987925371
0.239879253703
0.23987925371
0.239879253709
0.239879254168
0.23987928506
0.237417710649
0.239878118162
0.239950892532
0.239954032337
0.239954161785
0.239954165844
0.23995416594
0.23995416594
0.239954165937
0.239954165938
0.239954165937
0.239954165939
0.239954165964
0.239954166826
0.239954190554
0.237417885196
0.239879229336
0.239954032336
0.239957446515
0.239957595207
0.239957600111
0.239957600231
0.239957600231
0.239957600229
0.239957600228
0.239957600226
0.239957600227
0.239957600254
0.239957601123
0.239957623197
0.237417888976
0.239879253328
0.239954161785
0.239957595206
0.239957745303
0.239957750268
0.239957750388
0.23995775039
0.239957750388
0.239957750387
0.239957750386
0.239957750386
0.239957750414
0.239957751282
0.239957773227
0.237417884565
0.239879253697
0.239954165843
0.239957600111
0.239957750268
0.239957755236
0.239957755357
0.239957755359
0.239957755357
0.239957755354
0.239957755353
0.239957755353
0.23995775538
0.239957756249
0.239957778188
0.237417883929
0.239879253676
0.239954165939
0.239957600231
0.239957750388
0.239957755357
0.239957755479
0.23995775548
0.239957755477
0.239957755474
0.23995775547
0.23995775547
0.239957755499
0.239957756368
0.239957778307
0.237417885801
0.239879253729
0.239954165941
0.239957600231
0.23995775039
0.239957755359
0.23995775548
0.239957755478
0.239957755474
0.239957755472
0.239957755471
0.23995775547
0.239957755499
0.239957756367
0.239957778306
0.237417881038
0.239879253652
0.239954165937
0.239957600229
0.239957750388
0.239957755357
0.239957755476
0.239957755474
0.239957755472
0.239957755469
0.239957755467
0.239957755467
0.239957755495
0.239957756363
0.239957778302
0.237417883617
0.239879253704
0.239954165936
0.239957600227
0.239957750387
0.239957755354
0.239957755474
0.239957755472
0.239957755469
0.239957755466
0.239957755464
0.239957755465
0.239957755493
0.239957756361
0.239957778299
0.237417883772
0.239879253702
0.239954165936
0.239957600226
0.239957750386
0.239957755352
0.23995775547
0.239957755471
0.239957755467
0.239957755464
0.239957755463
0.239957755464
0.239957755492
0.23995775636
0.239957778298
0.237417879917
0.239879253642
0.239954165936
0.239957600226
0.239957750386
0.239957755353
0.23995775547
0.23995775547
0.239957755467
0.239957755465
0.239957755464
0.239957755465
0.239957755492
0.23995775636
0.239957778297
0.237417882901
0.239879253706
0.239954165964
0.239957600254
0.239957750414
0.23995775538
0.239957755498
0.239957755498
0.239957755495
0.239957755492
0.239957755492
0.239957755492
0.23995775552
0.239957756388
0.239957778325
0.237417882786
0.239879254211
0.239954166827
0.239957601123
0.239957751282
0.239957756249
0.239957756368
0.239957756367
0.239957756363
0.23995775636
0.23995775636
0.23995775636
0.239957756388
0.239957757256
0.239957779196
0.237417900251
0.239879285085
0.239954190554
0.239957623197
0.239957773227
0.239957778188
0.239957778306
0.239957778305
0.239957778302
0.239957778299
0.239957778298
0.239957778297
0.239957778325
0.239957779196
0.239957801158
0.237387084196
0.237410104115
0.237417742234
0.237417916698
0.237417920262
0.237417915646
0.237417915151
0.237417918144
0.237417911843
0.237417921772
0.237417921589
0.237417921009
0.237417920236
0.237417913902
0.23741793608
0.237410111411
0.239832365187
0.239878122205
0.23987923349
0.239879257429
0.239879257836
0.239879257832
0.239879257749
0.23987925616
0.239879256398
0.239879257307
0.23987925798
0.239879257204
0.239879258372
0.239879289176
0.237417742237
0.239878122119
0.239950893117
0.239954032791
0.239954162234
0.239954166287
0.239954166385
0.239954166385
0.23995416635
0.239954166361
0.239954166379
0.239954166387
0.239954166409
0.239954167274
0.239954190993
0.237417916699
0.239879233476
0.239954032789
0.23995744678
0.23995759547
0.239957600372
0.239957600492
0.239957600491
0.239957600488
0.239957600492
0.239957600492
0.239957600493
0.239957600521
0.239957601391
0.239957623463
0.237417920261
0.239879257439
0.239954162234
0.23995759547
0.239957745571
0.239957750532
0.23995775065
0.239957750657
0.239957750655
0.239957750655
0.239957750654
0.239957750655
0.239957750683
0.239957751551
0.239957773495
0.237417915403
0.23987925782
0.239954166285
0.239957600371
0.239957750532
0.239957755492
0.239957755618
0.239957755622
0.23995775562
0.239957755619
0.239957755616
0.239957755617
0.239957755645
0.239957756513
0.239957778452
0.237417915221
0.239879257812
0.239954166385
0.239957600492
0.23995775065
0.239957755618
0.239957755741
0.239957755744
0.239957755739
0.239957755736
0.239957755732
0.239957755732
0.239957755761
0.239957756632
0.239957778569
0.237417922927
0.239879257986
0.239954166391
0.239957600491
0.239957750657
0.239957755622
0.239957755743
0.239957755741
0.239957755736
0.239957755735
0.239957755733
0.239957755733
0.239957755762
0.23995775663
0.239957778567
0.237417911888
0.23987925774
0.239954166382
0.23995760049
0.239957750655
0.23995775562
0.239957755737
0.239957755735
0.239957755732
0.239957755729
0.239957755727
0.239957755727
0.239957755756
0.239957756625
0.239957778561
0.237417919329
0.239879256692
0.23995416637
0.239957600493
0.239957750655
0.239957755616
0.239957755736
0.239957755734
0.239957755729
0.239957755727
0.239957755725
0.239957755726
0.239957755755
0.239957756623
0.239957778559
0.237417921442
0.239879257937
0.239954166382
0.239957600492
0.239957750654
0.239957755616
0.239957755732
0.239957755733
0.239957755727
0.239957755725
0.239957755724
0.239957755726
0.239957755754
0.239957756622
0.239957778557
0.237417914155
0.239879255932
0.239954166346
0.239957600492
0.239957750655
0.239957755617
0.239957755732
0.239957755732
0.239957755727
0.239957755726
0.239957755726
0.239957755727
0.239957755755
0.239957756628
0.239957778558
0.23741792046
0.239879257968
0.239954166411
0.239957600521
0.239957750683
0.239957755645
0.23995775576
0.239957755761
0.239957755756
0.239957755754
0.239957755753
0.239957755755
0.239957755782
0.239957756651
0.239957778585
0.237417920492
0.239879258452
0.239954167274
0.23995760139
0.239957751552
0.239957756514
0.239957756631
0.23995775663
0.239957756624
0.239957756622
0.239957756622
0.239957756623
0.23995775665
0.23995775752
0.239957779456
0.237417936814
0.239879287316
0.23995419096
0.239957623462
0.239957773495
0.239957778451
0.239957778567
0.239957778566
0.239957778561
0.239957778559
0.239957778557
0.239957778557
0.239957778585
0.239957779456
0.239957801419
0.237387062365
0.237410063579
0.237417700304
0.23741788083
0.237417883521
0.237417882796
0.237417882512
0.237417907153
0.237417877976
0.237417900531
0.237417899408
0.237417898942
0.237417899223
0.237417904008
0.237417893031
0.237410096521
0.239832364189
0.239878121691
0.239879233049
0.239879256987
0.239879257382
0.239879257319
0.239879257783
0.239879256174
0.239879256438
0.239879257315
0.23987925743
0.239879257221
0.239879256889
0.239879288047
0.237417700344
0.239878120419
0.239950892793
0.239954032673
0.239954161961
0.239954165751
0.239954165629
0.23995416565
0.239954166309
0.239954166345
0.239954166338
0.239954165664
0.239954165895
0.239954166685
0.239954190226
0.237417880918
0.239879233008
0.23995403251
0.239957446323
0.239957594969
0.239957599686
0.239957599779
0.239957599782
0.23995759981
0.23995759981
0.239957599807
0.239957599783
0.239957599826
0.239957600694
0.239957622751
0.237417883589
0.239879256927
0.239954161946
0.239957594972
0.239957744908
0.239957749834
0.23995774996
0.239957749964
0.239957749962
0.239957749961
0.239957749959
0.239957749959
0.239957749988
0.239957750857
0.239957772799
0.237417882853
0.23987925614
0.239954165742
0.239957599686
0.239957749834
0.239957754793
0.239957754922
0.239957754922
0.239957754921
0.239957754926
0.23995775492
0.23995775492
0.23995775495
0.239957755822
0.239957777755
0.237417880081
0.239879257014
0.239954165617
0.239957599779
0.23995774996
0.239957754922
0.239957755047
0.239957755048
0.239957755047
0.239957755046
0.239957755046
0.239957755045
0.239957755075
0.239957755942
0.239957777878
0.23741787677
0.239879257623
0.239954165635
0.239957599794
0.239957749965
0.239957754922
0.239957755048
0.239957755048
0.239957755048
0.239957755045
0.239957755044
0.239957755046
0.239957755073
0.239957755941
0.239957777878
0.237417878244
0.239879256796
0.239954165868
0.239957599963
0.239957749975
0.239957754922
0.239957755046
0.239957755046
0.239957755044
0.239957755044
0.239957755043
0.239957755046
0.239957755072
0.239957755941
0.239957777876
0.237417896034
0.239879256719
0.239954166339
0.239957599823
0.239957749962
0.239957754925
0.239957755046
0.239957755045
0.239957755044
0.239957755047
0.239957755046
0.239957755048
0.239957755074
0.239957755944
0.239957777876
0.237417901443
0.2398792574
0.239954165981
0.239957599801
0.239957749959
0.23995775492
0.239957755046
0.239957755044
0.239957755043
0.239957755046
0.239957755046
0.239957755047
0.239957755076
0.239957755956
0.239957777876
0.237417904291
0.239879256001
0.239954166304
0.239957599807
0.23995774996
0.23995775492
0.239957755044
0.239957755045
0.239957755047
0.239957755048
0.239957755047
0.239957755048
0.23995775509
0.23995775612
0.239957777891
0.237417898676
0.239879257475
0.239954165691
0.23995759981
0.239957749987
0.239957754949
0.239957755075
0.239957755073
0.239957755072
0.239957755075
0.239957755073
0.239957755076
0.239957755104
0.239957755982
0.239957777905
0.237417898477
0.239879257845
0.239954166707
0.239957600693
0.239957750857
0.239957755822
0.239957755942
0.239957755941
0.23995775594
0.23995775594
0.239957755939
0.239957755941
0.239957755968
0.239957756837
0.239957778773
0.237417926755
0.239879287389
0.239954190683
0.239957622761
0.239957772799
0.239957777754
0.239957777877
0.239957777878
0.239957777876
0.239957777875
0.239957777874
0.239957777877
0.239957777904
0.239957778774
0.23995780073
0.23738706318
0.237410051361
0.237417689515
0.237417868565
0.237417871041
0.237417870773
0.237417870621
0.237417912041
0.237417867921
0.237417900664
0.237417899564
0.237417899104
0.237417899361
0.2374179104
0.237417891704
0.237410099694
0.23983236431
0.239878121733
0.239879233093
0.239879257031
0.239879257422
0.239879257329
0.239879258291
0.239879257999
0.239879258348
0.239879258326
0.239879257497
0.23987925831
0.239879256544
0.239879288039
0.237417689485
0.239878120187
0.239950892781
0.239954032671
0.23995416195
0.239954165639
0.239954165603
0.239954165639
0.239954166334
0.239954166368
0.239954166345
0.239954165641
0.239954165828
0.239954166447
0.239954190204
0.237417868413
0.23987923305
0.239954032502
0.239957446241
0.239957594786
0.239957599653
0.239957599757
0.23995759976
0.239957599767
0.239957599779
0.239957599778
0.239957599755
0.239957599798
0.239957600661
0.239957622726
0.237417871084
0.239879256946
0.239954161931
0.239957594811
0.239957744874
0.239957749811
0.239957749934
0.239957749936
0.239957749937
0.23995774994
0.239957749939
0.239957749939
0.239957749968
0.239957750836
0.239957772781
0.237417870975
0.23987925589
0.239954165665
0.239957599656
0.239957749812
0.239957754767
0.239957754894
0.2399577549
0.239957754901
0.239957754901
0.239957754901
0.239957754902
0.239957754932
0.2399577558
0.23995777774
0.237417869534
0.23987925708
0.239954165595
0.23995759976
0.239957749935
0.239957754894
0.239957755026
0.239957755029
0.239957755031
0.239957755032
0.239957755031
0.239957755033
0.239957755059
0.239957755928
0.239957777867
0.237417875292
0.239879257653
0.239954165618
0.239957599772
0.239957749937
0.2399577549
0.239957755029
0.239957755033
0.239957755036
0.239957755034
0.239957755034
0.239957755035
0.239957755063
0.239957755931
0.23995777787
0.237417867917
0.239879256754
0.239954165793
0.239957599761
0.239957749948
0.239957754902
0.239957755031
0.239957755034
0.239957755034
0.239957755033
0.239957755033
0.239957755034
0.239957755063
0.23995775593
0.239957777868
0.237417896227
0.239879258293
0.239954166353
0.239957599791
0.239957749941
0.239957754901
0.239957755031
0.239957755034
0.239957755033
0.239957755034
0.239957755033
0.239957755034
0.239957755062
0.239957755931
0.239957777869
0.23741790156
0.23987925747
0.239954165964
0.239957599774
0.239957749939
0.2399577549
0.239957755029
0.239957755033
0.239957755033
0.239957755033
0.239957755032
0.239957755034
0.23995775506
0.239957755939
0.239957777867
0.237417910997
0.239879258341
0.23995416634
0.239957599779
0.23995774994
0.239957754901
0.239957755033
0.239957755035
0.239957755035
0.239957755034
0.239957755034
0.239957755036
0.239957755073
0.239957755927
0.239957777877
0.237417898832
0.239879257545
0.23995416567
0.239957599783
0.239957749967
0.23995775493
0.239957755059
0.239957755063
0.239957755063
0.239957755063
0.239957755062
0.239957755063
0.239957755091
0.239957755969
0.239957777895
0.237417898635
0.239879257913
0.239954166529
0.239957600663
0.239957750836
0.2399577558
0.239957755928
0.239957755931
0.239957755931
0.23995775593
0.239957755929
0.239957755932
0.239957755959
0.239957756828
0.239957778766
0.237417931455
0.239879289778
0.239954190691
0.239957622735
0.239957772781
0.239957777737
0.239957777867
0.239957777868
0.239957777867
0.239957777867
0.239957777865
0.239957777869
0.239957777894
0.239957778764
0.239957800722
0.237387013377
0.237410060153
0.237417698229
0.237417877853
0.237417880316
0.237417880293
0.237417880155
0.237417892464
0.237417876091
0.237417909879
0.23741791004
0.237417909741
0.23741790891
0.23741789729
0.237417894909
0.23741005163
0.239832365205
0.239878122477
0.23987923383
0.23987925777
0.239879258113
0.23987925788
0.239879257813
0.239879257385
0.239879256381
0.239879256399
0.239879258311
0.23987925638
0.239879256994
0.239879288343
0.237417698197
0.239878120553
0.239950892273
0.239954032022
0.239954161478
0.239954165482
0.23995416618
0.239954166317
0.239954165631
0.239954165597
0.239954165617
0.239954166263
0.239954165656
0.239954166546
0.239954190902
0.237417877748
0.239879233763
0.239954032015
0.239957446036
0.239957594834
0.239957600107
0.239957600393
0.239957600394
0.239957600085
0.239957600223
0.239957600253
0.239957600255
0.239957600283
0.239957601134
0.239957623248
0.237417880355
0.23987925745
0.239954161462
0.239957594857
0.239957745329
0.239957750432
0.239957750438
0.23995775044
0.23995775049
0.239957750583
0.2399577506
0.239957750601
0.23995775063
0.239957751496
0.239957773442
0.23741788048
0.239879256262
0.239954165712
0.239957600136
0.239957750437
0.239957755271
0.239957755393
0.239957755548
0.239957755563
0.239957755486
0.239957755571
0.239957755581
0.239957755609
0.239957756471
0.239957778414
0.237417889581
0.239879258139
0.239954166339
0.239957600417
0.239957750442
0.239957755415
0.239957755663
0.239957755706
0.239957755712
0.239957755706
0.239957755708
0.239957755715
0.239957755735
0.239957756609
0.239957778544
0.237417906217
0.239879258252
0.239954166349
0.239957600397
0.23995775044
0.239957755549
0.239957755706
0.239957755714
0.239957755717
0.239957755716
0.239957755718
0.239957755719
0.239957755745
0.239957756613
0.239957778549
0.237417875803
0.239879256707
0.239954165637
0.239957599843
0.239957750488
0.239957755563
0.239957755712
0.239957755717
0.239957755717
0.239957755713
0.239957755715
0.239957755711
0.239957755743
0.239957756607
0.239957778544
0.237417907549
0.239879256368
0.239954165599
0.239957600246
0.239957750585
0.239957755485
0.239957755699
0.239957755716
0.239957755712
0.239957755709
0.239957755708
0.239957755709
0.23995775573
0.239957756595
0.239957778544
0.237417910287
0.239879258282
0.23995416563
0.239957600235
0.239957750597
0.239957755555
0.23995775565
0.239957755711
0.239957755716
0.239957755709
0.239957755707
0.239957755702
0.239957755637
0.239957756484
0.239957778527
0.23741789364
0.239879257753
0.239954165649
0.239957600256
0.239957750602
0.239957755577
0.239957755707
0.239957755717
0.239957755714
0.239957755711
0.23995775571
0.23995775571
0.239957755706
0.239957755903
0.239957778514
0.237417909349
0.239879258358
0.239954166316
0.239957600287
0.239957750628
0.239957755604
0.239957755733
0.23995775575
0.239957755744
0.23995775574
0.239957755738
0.23995775574
0.239957755764
0.239957756614
0.239957778569
0.23741790919
0.239879258776
0.239954166482
0.239957601135
0.239957751496
0.239957756476
0.23995775661
0.239957756614
0.239957756612
0.239957756611
0.239957756607
0.239957756613
0.239957756637
0.239957757508
0.239957779441
0.237417913612
0.239879289182
0.239954190915
0.239957623295
0.239957773446
0.239957778411
0.239957778546
0.239957778544
0.239957778539
0.239957778539
0.239957778537
0.23995777854
0.239957778565
0.239957779433
0.239957801331
0.23738701288
0.237410081793
0.237417719723
0.237417900472
0.237417902917
0.23741790334
0.237417903367
0.237417892585
0.237417885095
0.237417873304
0.237417871752
0.237417871505
0.237417872428
0.237417897398
0.237417902194
0.237410051043
0.23983236333
0.239878120699
0.239879232083
0.239879256022
0.239879256455
0.239879256595
0.239879257822
0.239879257408
0.239879256144
0.23987925613
0.239879257895
0.239879256145
0.239879256969
0.239879288366
0.237417719724
0.239878120812
0.239950892231
0.23995403196
0.239954161423
0.239954165517
0.239954165725
0.239954166096
0.239954165604
0.239954165583
0.239954165602
0.239954166253
0.2399541657
0.23995416667
0.239954190706
0.23741790056
0.239879232079
0.23995403196
0.239957446088
0.239957594933
0.239957599749
0.23995759981
0.23995759984
0.239957599837
0.239957599935
0.239957599948
0.23995759979
0.239957599905
0.239957600796
0.239957622771
0.237417902958
0.239879256118
0.239954161431
0.239957594944
0.239957744973
0.239957749832
0.239957749962
0.239957749979
0.239957749979
0.23995774996
0.239957749956
0.239957749959
0.239957749991
0.239957750864
0.239957772797
0.237417903575
0.239879256523
0.239954165754
0.239957599944
0.239957749836
0.239957754788
0.239957754932
0.239957754919
0.239957754916
0.239957754932
0.23995775491
0.239957754915
0.239957754942
0.239957755845
0.239957777745
0.237417889369
0.239879256282
0.239954166279
0.23995759981
0.239957749977
0.239957754925
0.239957755091
0.239957755046
0.239957755039
0.239957755045
0.239957755044
0.239957755059
0.239957755076
0.239957755943
0.239957777876
0.237417875978
0.239879258
0.239954166159
0.239957600195
0.239957749991
0.239957754918
0.239957755046
0.23995775504
0.239957755043
0.239957755046
0.23995775507
0.239957755218
0.239957755085
0.23995775594
0.239957777877
0.237417882131
0.239879256828
0.239954165681
0.239957599934
0.239957750064
0.239957754918
0.239957755038
0.239957755041
0.239957755047
0.239957755056
0.239957755211
0.239957755071
0.239957755073
0.239957755945
0.239957777881
0.237417871937
0.239879256136
0.239954165584
0.23995759995
0.239957749964
0.239957754919
0.239957755043
0.239957755047
0.239957755062
0.239957755048
0.239957755061
0.239957755048
0.239957755072
0.239957755944
0.23995777788
0.23741786994
0.239879257819
0.23995416561
0.239957599858
0.239957749954
0.23995775491
0.239957755049
0.239957755062
0.239957755264
0.239957755096
0.239957755049
0.239957755046
0.239957755082
0.239957755956
0.239957777892
0.237417893757
0.239879257765
0.239954165634
0.239957599912
0.239957749958
0.239957754911
0.239957755045
0.239957755081
0.239957755476
0.239957755597
0.23995775507
0.239957755075
0.239957755293
0.239957755986
0.239957778095
0.237417869784
0.239879257955
0.239954166316
0.239957600213
0.239957749994
0.239957754967
0.239957755092
0.239957755279
0.239957755112
0.239957755129
0.23995775509
0.239957755487
0.239957755352
0.239957756015
0.239957778297
0.237417869685
0.239879258165
0.239954166583
0.239957600835
0.239957750876
0.239957756394
0.239957755965
0.239957755962
0.239957755944
0.239957755971
0.239957755949
0.239957756154
0.239957755765
0.239957757064
0.239957778498
0.237417913738
0.239879289193
0.239954190727
0.239957622767
0.239957772807
0.239957777766
0.239957777873
0.239957777877
0.239957777876
0.239957777877
0.239957777875
0.239957777899
0.239957778124
0.239957778565
0.239957792841
0.237387053546
0.237410049052
0.237417687119
0.237417867334
0.237417870183
0.237417869959
0.237417869855
0.23741791079
0.237417886215
0.237417871803
0.23741787035
0.237417870166
0.23741787116
0.237417910183
0.237417888633
0.237410091035
0.239832363325
0.239878120365
0.239879231746
0.239879255675
0.239879256125
0.239879256296
0.239879258626
0.239879258185
0.239879258454
0.239879258439
0.239879257911
0.239879258423
0.239879258368
0.239879288444
0.237417687406
0.239878121022
0.239950893035
0.239954032716
0.239954162168
0.239954166183
0.239954165727
0.239954166099
0.239954166328
0.23995416636
0.239954166356
0.2399541663
0.239954166368
0.239954167136
0.239954190707
0.237417867281
0.239879231734
0.239954032717
0.239957446705
0.239957595298
0.239957599745
0.239957599784
0.2399575998
0.239957599817
0.239957599932
0.239957599944
0.239957599779
0.239957599888
0.23995760076
0.239957622754
0.237417870159
0.239879255771
0.239954162173
0.23995759534
0.239957744965
0.239957749813
0.239957749944
0.239957749969
0.239957749964
0.239957749935
0.239957749944
0.239957749942
0.239957749973
0.239957750844
0.239957772786
0.237417869941
0.239879256698
0.239954166186
0.239957599888
0.239957749818
0.23995775477
0.239957754924
0.239957754904
0.239957754906
0.239957754917
0.2399577549
0.239957754903
0.239957754932
0.239957755825
0.239957777738
0.237417890344
0.239879256195
0.239954166294
0.239957599797
0.23995774997
0.239957754907
0.239957755041
0.239957755034
0.23995775503
0.239957755032
0.239957755033
0.239957755044
0.239957755064
0.239957755929
0.239957777866
0.237417874433
0.239879258007
0.239954166161
0.239957600194
0.239957749982
0.239957754905
0.239957755034
0.239957755032
0.239957755034
0.239957755034
0.239957755054
0.239957755003
0.239957755072
0.239957755927
0.239957777871
0.237417885022
0.239879258182
0.239954166352
0.239957600155
0.239957750055
0.239957754908
0.23995775503
0.239957755033
0.239957755035
0.239957755043
0.239957755006
0.239957755054
0.239957755062
0.239957755933
0.239957777871
0.237417870459
0.239879258417
0.23995416636
0.239957599953
0.239957749938
0.239957754901
0.239957755028
0.239957755034
0.239957755051
0.239957755038
0.239957755015
0.239957755037
0.23995775506
0.239957755936
0.239957777873
0.237417868426
0.239879257837
0.239954166335
0.239957599846