/*--------------------------------*- C++ -*----------------------------------*\
| =========                 |                                                 |
| \\      /  F ield         | OpenFOAM: The Open Source CFD Toolbox           |
|  \\    /   O peration     | Version:  2406                                  |
|   \\  /    A nd           | Website:  www.openfoam.com                      |
|    \\/     M anipulation  |                                                 |
\*---------------------------------------------------------------------------*/
FoamFile
{
    version     2.0;
    format      ascii;
    arch        "LSB;label=32;scalar=64";
    class       volScalarField;
    location    "0.01";
    object      nut;
}
// * * * * * * * * * * * * * * * * * * * * * * * * * * * * * * * * * * * * * //

dimensions      [0 2 -1 0 0 0 0];

internalField   nonuniform List<scalar> 
29767
(
0.0016306137678
0.00182272320101
0.00182275256026
0.00182275317852
0.00182275320227
0.00182275317779
0.0018227531806
0.00182275317171
0.00182275317174
0.00182275316842
0.00182275316797
0.00182275316674
0.00182275316641
0.00182275316608
0.00182275324176
0.00182272320097
0.0325369375635
0.0447934796674
0.0451973476524
0.0452066018827
0.0452065988162
0.0452066395918
0.0452066211663
0.0452066207719
0.0452066221337
0.0452066194459
0.045206621449
0.0452066205235
0.0452066334567
0.0452070955243
0.00182275256026
0.0447934792875
0.114894852215
0.123217317001
0.123593657563
0.12360572254
0.123606037507
0.123606041128
0.123606041478
0.12360604184
0.123606041415
0.123606041869
0.123606042884
0.123606074542
0.123606777084
0.00182275317852
0.0451973474066
0.123217317006
0.133776209666
0.134287280782
0.134304531596
0.134304988986
0.134304998832
0.134304999054
0.134304999055
0.134304999044
0.134304999063
0.134304999208
0.134305002951
0.134305081183
0.00182275320227
0.0452066015078
0.123593657427
0.134287280774
0.134807286733
0.134824899786
0.134825367687
0.134825377946
0.134825378141
0.134825378145
0.134825378145
0.134825378147
0.134825378164
0.134825378675
0.134825391359
0.00182275317779
0.0452065985881
0.123605722551
0.134304531604
0.134824899786
0.13484252655
0.134842994883
0.134843005158
0.134843005352
0.134843005356
0.134843005356
0.134843005357
0.134843005367
0.134843005704
0.134843014992
0.00182275318061
0.0452066393759
0.123606037531
0.134304988995
0.134825367687
0.134842994883
0.134843463229
0.134843473505
0.134843473698
0.134843473702
0.134843473703
0.134843473703
0.134843473713
0.134843474044
0.13484348321
0.00182275317165
0.045206620947
0.123606041138
0.13430499884
0.134825377946
0.134843005158
0.134843473505
0.13484348378
0.134843483973
0.134843483977
0.134843483977
0.134843483978
0.134843483988
0.134843484318
0.134843493482
0.00182275317173
0.045206620399
0.123606041316
0.134304999043
0.134825378141
0.134843005352
0.134843473698
0.134843483973
0.134843484167
0.134843484171
0.134843484171
0.134843484172
0.134843484182
0.134843484512
0.134843493675
0.00182275316841
0.0452066217599
0.123606041668
0.134304999043
0.134825378144
0.134843005356
0.134843473702
0.134843483977
0.134843484171
0.134843484175
0.134843484175
0.134843484176
0.134843484186
0.134843484516
0.134843493679
0.00182275316796
0.0452066190781
0.123606041244
0.134304999032
0.134825378145
0.134843005356
0.134843473703
0.134843483977
0.134843484171
0.134843484175
0.134843484175
0.134843484176
0.134843484186
0.134843484516
0.134843493679
0.00182275316676
0.0452066210881
0.123606041695
0.13430499905
0.134825378146
0.134843005357
0.134843473703
0.134843483978
0.134843484172
0.134843484176
0.134843484176
0.134843484177
0.134843484187
0.134843484517
0.13484349368
0.0018227531664
0.045206620172
0.123606042717
0.134304999196
0.134825378164
0.134843005367
0.134843473713
0.134843483988
0.134843484182
0.134843484186
0.134843484186
0.134843484187
0.134843484197
0.134843484526
0.13484349369
0.00182275316605
0.0452066331166
0.123606074382
0.134305002939
0.134825378675
0.134843005704
0.134843474043
0.134843484318
0.134843484512
0.134843484516
0.134843484516
0.134843484517
0.134843484526
0.134843484856
0.13484349402
0.00182275324172
0.0452070951934
0.123606776928
0.134305081171
0.134825391358
0.134843014992
0.13484348321
0.134843493482
0.134843493675
0.134843493679
0.134843493679
0.13484349368
0.13484349369
0.13484349402
0.134843503176
0.00163261690276
0.00182263437724
0.00182266376268
0.00182266439197
0.00182266441723
0.00182266438959
0.00182266439256
0.00182266438019
0.00182266437929
0.00182266438748
0.00182266438651
0.00182266438475
0.00182266438449
0.00182266437754
0.00182266444582
0.0018226343875
0.0311835945016
0.0431660784
0.0435712535679
0.0435803025037
0.0435804403015
0.0435804471903
0.0435804453647
0.0435804435245
0.0435804452149
0.0435804429594
0.04358044463
0.0435804440352
0.043580457451
0.0435809467302
0.00182266376269
0.0431660779957
0.113685748306
0.122444301668
0.122845956065
0.122858939266
0.122859271679
0.122859278038
0.122859278238
0.122859278256
0.12285927759
0.122859278035
0.122859279066
0.12285931407
0.122860091323
0.00182266439196
0.0435712534699
0.122444301851
0.133687174351
0.1342408825
0.134259728414
0.134260230414
0.134260241368
0.134260241609
0.13426024158
0.13426024154
0.134260241563
0.134260241709
0.134260245897
0.134260333198
0.00182266441722
0.0435803024101
0.122845956215
0.134240882521
0.134804838368
0.13482409845
0.134824612899
0.134824624223
0.134824624438
0.13482462444
0.134824624438
0.13482462444
0.134824624458
0.134824625023
0.134824639012
0.00182266438957
0.0435804398803
0.12285893909
0.134259728403
0.13482409845
0.134843377004
0.13484389199
0.134843903331
0.134843903544
0.134843903548
0.134843903548
0.134843903549
0.13484390356
0.134843903928
0.134843914112
0.00182266439092
0.0435804464404
0.122859271213
0.134260230376
0.134824612897
0.13484389199
0.134844406992
0.134844418333
0.134844418547
0.134844418551
0.134844418551
0.134844418552
0.134844418563
0.134844418924
0.134844428971
0.00182266439241
0.043580444841
0.122859277734
0.134260241341
0.134824624222
0.134843903331
0.134844418333
0.134844429675
0.134844429888
0.134844429892
0.134844429892
0.134844429893
0.134844429903
0.134844430265
0.134844440308
0.00182266437928
0.043580442777
0.122859277802
0.134260241575
0.134824624437
0.134843903544
0.134844418547
0.134844429888
0.134844430102
0.134844430106
0.134844430106
0.134844430106
0.134844430117
0.134844430478
0.134844440521
0.00182266438719
0.0435804449611
0.122859278196
0.134260241579
0.13482462444
0.134843903548
0.134844418551
0.134844429892
0.134844430106
0.13484443011
0.13484443011
0.13484443011
0.134844430121
0.134844430482
0.134844440525
0.00182266438647
0.0435804426973
0.122859277522
0.134260241539
0.134824624438
0.134843903548
0.134844418551
0.134844429892
0.134844430106
0.13484443011
0.134844430109
0.13484443011
0.134844430121
0.134844430482
0.134844440525
0.00182266437781
0.0435804441105
0.122859277669
0.134260241531
0.134824624438
0.134843903549
0.134844418551
0.134844429893
0.134844430106
0.13484443011
0.13484443011
0.134844430111
0.134844430121
0.134844430483
0.134844440526
0.0018226643839
0.0435804436226
0.122859278828
0.134260241691
0.134824624457
0.13484390356
0.134844418562
0.134844429904
0.134844430117
0.134844430121
0.134844430121
0.134844430121
0.134844430132
0.134844430493
0.134844440536
0.00182266438358
0.0435804570289
0.122859313917
0.13426024589
0.134824625023
0.134843903929
0.134844418924
0.134844430265
0.134844430478
0.134844430482
0.134844430482
0.134844430483
0.134844430493
0.134844430855
0.134844440897
0.00182266445291
0.0435809463042
0.122860091155
0.134260333188
0.134824639012
0.134843914112
0.13484442897
0.134844440308
0.134844440521
0.134844440525
0.134844440525
0.134844440526
0.134844440536
0.134844440897
0.134844450931
0.00163546199801
0.00182263401585
0.00182266336874
0.0018226640395
0.00182266405404
0.00182266403716
0.00182266403652
0.00182266402601
0.00182266402338
0.00182266403567
0.00182266403414
0.00182266403198
0.00182266403108
0.00182266401827
0.00182266408988
0.00182263402915
0.0311723761572
0.0431503040418
0.0435554792951
0.0435645165495
0.0435646594446
0.0435646645552
0.0435646619514
0.0435646602824
0.0435646608045
0.0435646585141
0.0435646598294
0.0435646596133
0.0435646728882
0.0435651627596
0.00182266336874
0.0431503037165
0.113664555327
0.122430065879
0.122832224061
0.122845229084
0.122845561706
0.122845567788
0.122845568424
0.122845567821
0.122845567024
0.122845567692
0.12284556911
0.122845604027
0.122846383557
0.00182266403948
0.043555479257
0.122430066383
0.133685224272
0.134239860513
0.134258744485
0.134259247941
0.134259258555
0.134259259184
0.134259259099
0.134259258688
0.134259259102
0.134259259285
0.134259263466
0.134259350747
0.00182266405401
0.0435645171144
0.122832224872
0.134239861066
0.134804778772
0.134824079466
0.1348245951
0.134824606446
0.134824606666
0.134824606661
0.134824606656
0.134824606662
0.134824606682
0.134824607247
0.134824621268
0.00182266403706
0.0435646590449
0.122845228996
0.134258744521
0.134824079469
0.134843397519
0.134843913692
0.134843925042
0.134843925255
0.134843925259
0.134843925257
0.134843925258
0.13484392527
0.134843925638
0.134843935842
0.00182266403461
0.0435646636208
0.122845561247
0.134259247911
0.1348245951
0.134843913692
0.134844429852
0.134844441217
0.134844441432
0.134844441435
0.134844441435
0.134844441437
0.134844441456
0.134844441809
0.134844451874
0.00182266404181
0.0435646613614
0.122845567485
0.134259258565
0.134824606455
0.134843925043
0.134844441217
0.134844452586
0.134844452801
0.134844452803
0.134844452803
0.134844452803
0.134844452815
0.134844453176
0.134844463239
0.0018226640235
0.0435646594935
0.122845567988
0.134259259153
0.134824606673
0.134843925255
0.134844441431
0.1348444528
0.134844453013
0.134844453017
0.134844453017
0.134844453017
0.134844453028
0.13484445339
0.134844463453
0.00182266403342
0.0435646610259
0.122845568425
0.13425925917
0.134824606667
0.134843925259
0.134844441435
0.134844452803
0.134844453017
0.134844453021
0.134844453024
0.134844453022
0.134844453033
0.134844453395
0.134844463457
0.00182266403401
0.0435646582804
0.12284556725
0.134259258777
0.13482460666
0.134843925258
0.134844441435
0.134844452803
0.134844453017
0.134844453022
0.134844453024
0.134844453022
0.134844453033
0.134844453394
0.134844463456
0.0018226640192
0.0435646591705
0.122845567297
0.134259259072
0.134824606661
0.134843925258
0.134844441436
0.134844452804
0.134844453017
0.134844453025
0.134844453023
0.134844453022
0.134844453033
0.134844453395
0.134844463457
0.00182266403066
0.0435646591623
0.122845568914
0.134259259282
0.134824606684
0.134843925269
0.134844441446
0.134844452815
0.134844453028
0.134844453034
0.134844453033
0.134844453033
0.134844453043
0.134844453405
0.134844463467
0.00182266403022
0.0435646721316
0.122845603631
0.134259263439
0.134824607246
0.134843925639
0.134844441808
0.134844453177
0.13484445339
0.134844453395
0.134844453395
0.134844453395
0.134844453405
0.134844453766
0.134844463828
0.00182266409733
0.0435651623543
0.122846383454
0.134259351053
0.134824621272
0.134843935842
0.134844451875
0.134844463239
0.134844463453
0.134844463457
0.134844463456
0.134844463456
0.134844463467
0.134844463828
0.134844473882
0.00163554244656
0.00182263413859
0.00182266349012
0.00182266416054
0.00182266417423
0.0018226641565
0.00182266415459
0.00182266416609
0.00182266414188
0.00182266418003
0.00182266417933
0.0018226641771
0.00182266417413
0.00182266414979
0.00182266423502
0.00182263416663
0.0311735320917
0.0431512772289
0.0435565731798
0.0435655836622
0.0435657491947
0.0435657541469
0.0435657517413
0.0435657538624
0.043565753152
0.0435657492092
0.0435657520875
0.0435657535392
0.0435657641549
0.0435662549729
0.00182266349013
0.0431512782273
0.113664711663
0.122430164381
0.122832317642
0.122845326577
0.122845663038
0.122845665931
0.122845682336
0.122845670334
0.12284566428
0.122845669067
0.12284568412
0.122845705648
0.122846487313
0.00182266416054
0.043556576747
0.122430172998
0.133685223108
0.134239859642
0.134258743852
0.134259247719
0.134259257974
0.134259260727
0.134259258889
0.134259258048
0.134259258889
0.134259260905
0.13425926325
0.134259350651
0.00182266417423
0.0435655888937
0.122832331707
0.134239861748
0.134804779158
0.134824079978
0.134824595644
0.134824606976
0.13482460727
0.134824607204
0.134824607173
0.134824607204
0.134824607281
0.134824607787
0.134824621818
0.00182266415556
0.0435657519838
0.122845333326
0.134258744369
0.134824080011
0.134843398196
0.134843914373
0.134843925743
0.134843925957
0.134843925962
0.134843925957
0.134843925958
0.134843925971
0.134843926337
0.13484393654
0.00182266415486
0.0435657548757
0.122845675453
0.134259249501
0.13482459571
0.134843914375
0.134844430559
0.134844441923
0.134844442138
0.13484444214
0.134844442143
0.134844442145
0.13484444217
0.134844442514
0.134844452576
0.00182266418447
0.0435657530269
0.122845670558
0.134259258377
0.134824607017
0.134843925746
0.134844441922
0.134844453291
0.134844453508
0.134844453507
0.134844453506
0.134844453506
0.134844453519
0.134844453879
0.13484446394
0.00182266414205
0.0435657542871
0.122845679947
0.13425926064
0.13482460729
0.134843925958
0.134844442136
0.134844453505
0.134844453717
0.134844453718
0.13484445372
0.134844453719
0.13484445373
0.134844454092
0.134844464152
0.00182266417065
0.0435657551636
0.122845684149
0.134259260864
0.134824607271
0.134843925963
0.13484444214
0.134844453506
0.134844453718
0.134844453723
0.134844453727
0.134844453728
0.134844453737
0.134844454099
0.134844464157
0.00182266417877
0.0435657508691
0.122845671174
0.134259258653
0.134824607213
0.134843925958
0.134844442142
0.134844453506
0.134844453719
0.134844453728
0.134844453694
0.134844453726
0.134844453738
0.134844454098
0.134844464157
0.00182266415077
0.0435657520713
0.122845681213
0.134259260721
0.134824607263
0.134843925959
0.134844442143
0.134844453506
0.134844453719
0.134844453732
0.134844453727
0.134844453708
0.134844453735
0.1348444541
0.134844464157
0.00182266417499
0.0435657553843
0.122845678985
0.134259260283
0.134824607288
0.134843925971
0.134844442153
0.134844453517
0.134844453729
0.134844453701
0.134844453734
0.134844453699
0.134844453739
0.134844454106
0.134844464167
0.00182266417511
0.0435657660005
0.12284570638
0.134259263236
0.134824607789
0.134843926339
0.134844442513
0.134844453879
0.134844454091
0.134844454059
0.134844454066
0.134844454089
0.1348444541
0.134844454467
0.134844464523
0.00182266423784
0.0435662543402
0.122846485706
0.134259350864
0.134824621819
0.13484393654
0.134844452576
0.13484446394
0.134844464152
0.134844464155
0.134844464155
0.134844464156
0.134844464166
0.134844464523
0.134844474569
0.00163630440827
0.00182263398282
0.00182266332899
0.0018226640227
0.00182266403305
0.00182266403026
0.00182266402917
0.00182266412386
0.00182266401174
0.00182266409841
0.0018226640941
0.00182266409231
0.00182266409339
0.00182266411177
0.00182266406959
0.00182263410941
0.0311735879354
0.0431513277887
0.0435566292355
0.0435656370116
0.0435658042598
0.043565807102
0.0435658063464
0.0435658066953
0.0435658062384
0.0435658041985
0.0435658051172
0.0435658058736
0.0435658183092
0.0435663073504
0.00182266332915
0.0431513261757
0.113664725052
0.122430175722
0.122832328327
0.122845337338
0.122845671799
0.12284567616
0.122845689114
0.12284567948
0.122845675263
0.122845678605
0.122845690088
0.122845714776
0.122846495423
0.00182266402305
0.0435566306948
0.122430181944
0.133685224045
0.13423986013
0.134258744158
0.13425924762
0.134259258214
0.134259259939
0.134259258814
0.134259258374
0.134259258908
0.134259259836
0.134259263169
0.13425935076
0.00182266403331
0.0435656393438
0.122832339425
0.134239861531
0.134804778814
0.134824079653
0.134824595288
0.134824606643
0.134824606898
0.134824606883
0.134824606864
0.134824606885
0.134824606917
0.134824607468
0.134824621497
0.00182266403048
0.0435658049296
0.122845341978
0.134258744522
0.134824079673
0.134843397802
0.134843913932
0.134843925371
0.134843925588
0.134843925598
0.134843925598
0.134843925591
0.134843925603
0.134843925974
0.134843936175
0.00182266401983
0.0435658068875
0.122845681618
0.134259248503
0.134824595324
0.134843913932
0.134844430184
0.134844441555
0.134844441772
0.134844441772
0.134844441777
0.134844441775
0.134844441786
0.134844442146
0.134844452209
0.0018226640071
0.0435658073024
0.122845679358
0.134259258571
0.134824606652
0.134843925373
0.134844441555
0.134844452923
0.134844453141
0.134844453139
0.134844453139
0.13484445314
0.13484445315
0.134844453511
0.134844463573
0.00182266401277
0.0435658065028
0.122845687273
0.134259260144
0.134824606906
0.134843925592
0.134844441768
0.134844453136
0.134844453349
0.134844453352
0.134844453352
0.134844453354
0.134844453363
0.134844453726
0.134844463786
0.00182266408113
0.0435658074049
0.122845690283
0.134259259753
0.134824606901
0.134843925596
0.134844441772
0.134844453139
0.134844453352
0.134844453357
0.134844453348
0.134844453357
0.134844453368
0.134844453731
0.134844463792
0.00182266410192
0.0435658039698
0.12284568046
0.134259258922
0.134824606892
0.134843925592
0.134844441774
0.134844453139
0.134844453351
0.134844453355
0.13484445331
0.134844453363
0.134844453375
0.134844453738
0.134844463792
0.00182266411286
0.0435658045751
0.122845688361
0.13425926007
0.134824606906
0.134843925592
0.134844441776
0.13484445314
0.134844453354
0.134844453357
0.134844453351
0.134844453323
0.134844453371
0.134844453829
0.1348444638
0.00182266409128
0.0435658082955
0.122845687615
0.134259260101
0.134824606948
0.134843925604
0.134844441785
0.13484445315
0.13484445336
0.134844453318
0.134844453359
0.134844453314
0.134844453364
0.134844453744
0.1348444638
0.00182266409052
0.043565818643
0.122845715434
0.134259263189
0.134824607471
0.134843925974
0.134844442145
0.134844453511
0.134844453722
0.134844453664
0.134844453679
0.13484445371
0.134844453721
0.134844454098
0.13484446415
0.00182266419918
0.0435663074047
0.122846495779
0.134259350925
0.134824621503
0.134843936175
0.134844452209
0.134844463573
0.134844463787
0.134844463788
0.134844463787
0.134844463788
0.134844463798
0.134844464152
0.134844474173
0.00163626566722
0.00182263393587
0.00182266328753
0.00182266397558
0.00182266398509
0.00182266398406
0.00182266398347
0.00182266414264
0.0018226639731
0.00182266409892
0.0018226640947
0.00182266409293
0.00182266409391
0.00182266413633
0.00182266406449
0.0018226341216
0.0311737710831
0.0431515121975
0.0435568250731
0.0435658331909
0.0435660008817
0.0435659987393
0.0435660024833
0.0435659965057
0.043565995346
0.0435660002492
0.0435659936397
0.0435659907762
0.0435660133043
0.0435664922428
0.00182266328742
0.0431514997386
0.113664790559
0.122430231864
0.122832384179
0.122845392655
0.122845716362
0.122845729506
0.12284572422
0.12284572384
0.122845730625
0.122845728379
0.12284572254
0.122845760376
0.122846535948
0.00182266397499
0.0435568185718
0.122430224678
0.133685228409
0.13423986295
0.134258746998
0.134259249405
0.134259260846
0.134259260655
0.134259260673
0.134259261305
0.1342592617
0.134259260481
0.134259265044
0.134259352423
0.00182266398526
0.0435658239191
0.122832380812
0.134239862865
0.134804779016
0.13482407978
0.134824595349
0.134824606754
0.134824606943
0.134824606962
0.134824606999
0.134824606991
0.13482460697
0.13482460755
0.134824621572
0.00182266398484
0.0435659940645
0.122845384964
0.134258746358
0.134824079748
0.134843397781
0.13484391399
0.13484392535
0.134843925564
0.134843925579
0.13484392558
0.134843925568
0.13484392558
0.134843925948
0.134843936152
0.0018226639793
0.0435659952827
0.122845715516
0.134259249173
0.134824595351
0.134843913991
0.134844430161
0.134844441529
0.134844441753
0.134844441753
0.134844441759
0.134844441762
0.134844441776
0.134844442121
0.134844452185
0.00182266400143
0.0435660026803
0.122845723952
0.134259260775
0.134824606742
0.134843925352
0.134844441528
0.134844452898
0.134844453123
0.134844453117
0.134844453117
0.134844453117
0.134844453128
0.134844453488
0.134844463551
0.00182266397309
0.0435659946006
0.122845723548
0.134259260736
0.134824606955
0.134843925577
0.134844441744
0.134844453114
0.134844453326
0.13484445333
0.134844453329
0.134844453329
0.13484445334
0.134844453703
0.134844463764
0.00182266408187
0.043565994094
0.122845723795
0.134259260396
0.13482460695
0.134843925578
0.134844441748
0.134844453115
0.134844453329
0.134844453333
0.134844453334
0.134844453336
0.134844453346
0.134844453712
0.134844463773
0.00182266410237
0.0435659937921
0.122845728654
0.134259261792
0.134824606995
0.134843925571
0.134844441753
0.134844453116
0.134844453328
0.134844453333
0.134844453296
0.134844453351
0.134844453354
0.134844453715
0.134844463772
0.00182266413863
0.0435659923339
0.122845724652
0.134259260769
0.13482460696
0.134843925568
0.134844441759
0.134844453118
0.13484445333
0.134844453343
0.134844453332
0.134844453313
0.13484445333
0.134844453703
0.134844463774
0.00182266409188
0.0435659965069
0.122845731075
0.134259261748
0.134824607011
0.134843925579
0.134844441763
0.134844453127
0.13484445334
0.13484445331
0.134844453336
0.134844453298
0.134844453281
0.134844453701
0.134844463751
0.00182266409113
0.0435660056388
0.122845760533
0.134259265209
0.134824607557
0.134843925953
0.134844442121
0.134844453488
0.134844453702
0.134844453658
0.134844453665
0.134844453622
0.134844453523
0.134844454026
0.134844463915
0.00182266421725
0.0435664970129
0.122846547529
0.134259353754
0.134824621615
0.134843936152
0.134844452186
0.13484446355
0.134844463765
0.134844463769
0.134844463764
0.134844463748
0.134844463734
0.134844463942
0.134844471895
0.00163658176831
0.00182263396966
0.00182266332102
0.00182266401126
0.00182266402073
0.00182266402064
0.00182266402011
0.00182266406741
0.00182266400449
0.00182266413434
0.00182266413495
0.0018226641338
0.00182266413061
0.00182266408596
0.00182266407681
0.0018226339369
0.0311737863987
0.0431515257904
0.0435568394965
0.0435658468323
0.0435660152793
0.0435660133384
0.0435660169688
0.0435660106169
0.0435660099452
0.0435660146809
0.0435660076105
0.0435660062444
0.0435660276693
0.0435665090291
0.0018226633209
0.043151515417
0.113664801611
0.122430235976
0.122832388249
0.122845396607
0.122845723655
0.122845734271
0.122845727125
0.12284572776
0.122845733942
0.122845731433
0.122845725791
0.122845765779
0.122846541284
0.00182266401086
0.043556832999
0.122430229183
0.133685229092
0.134239863376
0.134258747565
0.134259250332
0.134259261574
0.134259260944
0.134259261216
0.134259261829
0.134259262135
0.134259261042
0.134259265767
0.134259353097
0.00182266402088
0.0435658375486
0.122832382874
0.134239863026
0.134804779284
0.134824080137
0.134824595692
0.134824607058
0.134824607259
0.134824607329
0.134824607361
0.134824607347
0.13482460733
0.134824607927
0.134824621938
0.00182266402136
0.0435660085851
0.122845389222
0.134258746985
0.134824080111
0.134843398122
0.13484391428
0.134843925673
0.134843925885
0.134843925906
0.13484392593
0.134843925893
0.134843925901
0.134843926263
0.134843936468
0.00182266405633
0.0435660099136
0.122845719221
0.134259249826
0.134824595671
0.134843914292
0.134844430469
0.134844441848
0.134844442102
0.134844442113
0.134844442137
0.134844442143
0.134844442147
0.134844442438
0.134844452497
0.00182266412026
0.0435660151353
0.12284572771
0.134259261229
0.134824607044
0.13484392568
0.134844441845
0.134844453218
0.134844453471
0.134844453438
0.134844453438
0.134844453438
0.134844453446
0.134844453804
0.134844463864
0.00182266400339
0.0435660083675
0.122845727206
0.134259260912
0.134824607269
0.134843925948
0.134844442062
0.134844453434
0.134844453645
0.134844453645
0.134844453648
0.134844453644
0.134844453656
0.134844454017
0.134844464077
0.00182266412538
0.0435660071466
0.12284572576
0.134259260883
0.134824607305
0.134843925903
0.134844442062
0.134844453432
0.134844453642
0.134844453649
0.134844453693
0.134844453689
0.134844453688
0.134844454062
0.134844464107
0.0018226641359
0.043566007644
0.122845730902
0.134259262209
0.134824607354
0.134843925904
0.134844442067
0.134844453432
0.134844453647
0.134844453677
0.134844453694
0.134844453707
0.13484445363
0.134844453983
0.134844464098
0.00182266407193
0.0435660060615
0.12284572677
0.134259261058
0.134824607319
0.134843925893
0.134844442139
0.13484445344
0.134844453649
0.134844453717
0.134844453679
0.134844453598
0.134844453109
0.134844453588
0.134844464036
0.0018226641323
0.04356601035
0.122845734566
0.134259262136
0.134824607378
0.134843925901
0.134844442104
0.134844453449
0.134844453693
0.134844453681
0.134844453605
0.13484445247
0.134844446932
0.134844453291
0.134844462679
0.00182266413169
0.043566020622
0.122845764829
0.134259265782
0.13482460793
0.134843926298
0.134844442441
0.134844453804
0.134844454046
0.134844454001
0.134844453352
0.134844446016
0.134844428701
0.134844449988
0.134844433808
0.00182266414868
0.043566510712
0.122846550132
0.1342593541
0.134824621973
0.134843936471
0.1348444525
0.134844463862
0.134844464085
0.134844464105
0.134844464038
0.134844463367
0.134844460904
0.134844437788
0.134844121363
0.00163653399599
0.00182263405281
0.00182266340361
0.00182266409819
0.00182266410758
0.0018226641092
0.00182266410931
0.00182266406788
0.0018226640391
0.00182266399379
0.00182266398782
0.00182266398687
0.00182266399042
0.00182266408637
0.0018226641048
0.00182263393465
0.031173826809
0.0431515665713
0.0435568814037
0.0435658881016
0.0435660578888
0.0435660593117
0.0435660621457
0.0435660545233
0.0435660575084
0.0435660592825
0.0435660490628
0.0435660537965
0.0435660698933
0.0435665587276
0.00182266340362
0.0431515632274
0.113664862555
0.122430254594
0.122832407599
0.122845413451
0.122845763755
0.122845753687
0.122845741469
0.122845746719
0.122845748053
0.122845742062
0.122845739591
0.122845791827
0.122846561865
0.00182266409852
0.0435568773285
0.122430250893
0.133685232427
0.134239865002
0.134258748542
0.13425925381
0.134259262787
0.13425926139
0.13425926243
0.134259262514
0.134259262324
0.13425926149
0.134259268428
0.134259354333
0.00182266410774
0.0435658799872
0.122832392259
0.134239863827
0.134804779143
0.134824079855
0.134824595565
0.134824606845
0.13482460699
0.13482460704
0.134824607056
0.134824607038
0.134824607029
0.134824607691
0.134824621638
0.00182266411011
0.0435660545286
0.122845406821
0.134258748332
0.134824079843
0.134843397856
0.134843913998
0.134843925381
0.134843925588
0.134843925572
0.134843925591
0.134843925571
0.134843925585
0.134843925995
0.134843936178
0.00182266405552
0.0435660564684
0.122845734851
0.134259250288
0.134824595449
0.134843913991
0.134844430211
0.134844441557
0.134844441759
0.134844441733
0.134844441763
0.134844441742
0.13484444175
0.134844442145
0.134844452211
0.00182266400406
0.0435660530653
0.122845740655
0.134259261649
0.134824606794
0.134843925375
0.134844441557
0.134844452921
0.134844453131
0.134844453138
0.134844453154
0.134844453237
0.134844453152
0.134844453513
0.134844463574
0.00182266402771
0.0435660494106
0.12284574403
0.134259261732
0.134824607033
0.134843925574
0.134844441764
0.134844453136
0.134844453351
0.134844453361
0.134844453446
0.134844453331
0.134844453307
0.134844453694
0.134844463764
0.00182266398853
0.0435660470661
0.12284573555
0.134259261194
0.13482460698
0.134843925559
0.134844441772
0.134844453142
0.134844453364
0.134844453353
0.134844453327
0.134844453291
0.134844453207
0.134844453674
0.134844463744
0.00182266398086
0.043566047476
0.122845740438
0.134259262397
0.134824607034
0.134843925594
0.134844441773
0.134844453148
0.134844453476
0.134844453343
0.134844453301
0.134844452865
0.134844449971
0.13484445335
0.134844463598
0.00182266407238
0.0435660466574
0.122845736385
0.134259261256
0.134824607013
0.13484392559
0.134844441758
0.134844453135
0.134844453547
0.134844453599
0.134844452614
0.134844442811
0.134844381512
0.134844446354
0.134844457976
0.00182266398026
0.043566050392
0.12284574644
0.134259262867
0.134824607079
0.134843925588
0.134844441788
0.134844453224
0.134844453308
0.134844452845
0.134844441992
0.134844297869
0.134843575069
0.134844356807
0.134844285507
0.00182266397988
0.04356606681
0.122845783541
0.134259267102
0.134824607648
0.134843926297
0.134844442143
0.134844453464
0.134844453536
0.134844449508
0.134844365587
0.134843424403
0.134841149994
0.13484389528
0.134840639919
0.00182266414916
0.0435665500113
0.122846559882
0.134259354339
0.134824621668
0.134843936192
0.134844452209
0.134844463535
0.134844463718
0.134844463372
0.13484445611
0.134844372864
0.13484405611
0.134841065352
0.134801136827
0.00163669838651
0.00182263392699
0.00182266327832
0.00182266397084
0.00182266398179
0.00182266398093
0.00182266398053
0.00182266413783
0.0018226640434
0.00182266398802
0.00182266398244
0.00182266398173
0.00182266398555
0.0018226641355
0.00182266405269
0.00182263408833
0.0311738389868
0.0431515745515
0.0435568909163
0.043565895302
0.0435660682862
0.0435660650849
0.0435660678992
0.0435660596842
0.0435660627682
0.0435660975742
0.0435660641299
0.0435660603679
0.0435660737718
0.0435665647275
0.00182266327943
0.0431515705667
0.113664860751
0.12243025812
0.122832409403
0.12284541789
0.122845760134
0.122845755799
0.122845742576
0.122845749502
0.122845757373
0.122845749246
0.122845742453
0.122845793849
0.122846563855
0.00182266397064
0.0435568827313
0.122430253736
0.133685233063
0.134239865247
0.134258748843
0.134259253121
0.134259262973
0.134259261605
0.134259262546
0.13425926346
0.134259262769
0.134259261771
0.134259267986
0.134259354445
0.0018226639817
0.043565885236
0.122832395336
0.134239864609
0.134804779226
0.134824079859
0.1348245955
0.134824606845
0.134824607011
0.134824607038
0.134824607104
0.134824607046
0.13482460703
0.134824607648
0.134824621638
0.00182266398086
0.0435660608121
0.1228454085
0.13425874843
0.134824079843
0.134843397758
0.13484391399
0.134843925375
0.13484392559
0.134843925576
0.134843925593
0.134843925589
0.1348439256
0.134843925988
0.134843936177
0.00182266405926
0.0435660620238
0.122845735494
0.13425925046
0.134824595434
0.134843913977
0.134844430185
0.134844441552
0.134844441755
0.13484444169
0.134844441758
0.134844441768
0.134844441748
0.134844442143
0.134844452207