/*--------------------------------*- C++ -*----------------------------------*\
| =========                 |                                                 |
| \\      /  F ield         | OpenFOAM: The Open Source CFD Toolbox           |
|  \\    /   O peration     | Version:  2406                                  |
|   \\  /    A nd           | Website:  www.openfoam.com                      |
|    \\/     M anipulation  |                                                 |
\*---------------------------------------------------------------------------*/
FoamFile
{
    version     2.0;
    format      ascii;
    arch        "LSB;label=32;scalar=64";
    class       volScalarField;
    location    "0.01";
    object      omega_0;
}
// * * * * * * * * * * * * * * * * * * * * * * * * * * * * * * * * * * * * * //

dimensions      [0 0 -1 0 0 0 0];

internalField   nonuniform List<scalar> 
29767
(
130.256418582
130.262938986
130.265032567
130.265076654
130.265078348
130.265076602
130.265076802
130.265076169
130.265076171
130.265075934
130.265075902
130.265075814
130.265075791
130.265075767
130.265081164
130.262938983
7.37134285664
5.35533887637
5.30750834797
5.30642235011
5.30642271174
5.30641792607
5.30642008773
5.30642013378
5.30641997372
5.30642028902
5.30642005386
5.30642016258
5.30641865485
5.30636505297
130.265032567
5.35533892178
2.0884605058
1.94742355173
1.94149465369
1.94130517508
1.9413002288
1.94130017114
1.94130016544
1.94130015943
1.94130016599
1.94130015874
1.94130014292
1.941299652
1.9412887928
130.265076654
5.30750837684
1.94742355165
1.7937382206
1.78691262881
1.78668313993
1.78667705574
1.78667692437
1.78667692127
1.7866769211
1.78667692116
1.78667692085
1.78667691908
1.78667687511
1.78667598337
130.265078348
5.30642239409
1.94149465582
1.78691262892
1.78002081812
1.77978831464
1.77978213858
1.77978200274
1.77978199998
1.77978199976
1.77978199966
1.77978199957
1.77978199949
1.77978199854
1.77978197862
130.265076602
5.30642273851
1.9413051749
1.78668313983
1.77978831463
1.77955569124
1.77954951109
1.77954937519
1.77954937247
1.7795493723
1.77954937221
1.77954937215
1.77954937217
1.77954937353
1.7795493984
130.265076803
5.3064179514
1.94130022842
1.78667705561
1.77978213857
1.77954951109
1.7795433308
1.77954319489
1.77954319217
1.779543192
1.77954319191
1.77954319185
1.77954319187
1.77954319331
1.77954321979
130.265076164
5.30642011346
1.94130017097
1.78667692428
1.77978200273
1.77954937519
1.77954319489
1.77954305902
1.77954305631
1.77954305615
1.77954305607
1.77954305601
1.77954305604
1.77954305749
1.77954308402
130.26507617
5.30642017752
1.94130016799
1.78667692142
1.77978199999
1.77954937247
1.77954319217
1.77954305631
1.77954305359
1.77954305344
1.77954305335
1.7795430533
1.77954305332
1.77954305477
1.7795430813
130.265075934
5.30642001758
1.94130016213
1.78667692126
1.77978199977
1.7795493723
1.779543192
1.77954305615
1.77954305344
1.77954305329
1.7795430532
1.77954305315
1.77954305318
1.77954305463
1.77954308116
130.265075901
5.30642033217
1.94130016867
1.78667692132
1.77978199967
1.77954937221
1.77954319191
1.77954305607
1.77954305335
1.7795430532
1.77954305312
1.77954305307
1.7795430531
1.77954305455
1.77954308108
130.265075816
5.30642009621
1.94130016146
1.78667692102
1.77978199958
1.77954937215
1.77954319185
1.77954305601
1.7795430533
1.77954305315
1.77954305307
1.77954305302
1.77954305305
1.7795430545
1.77954308103
130.26507579
5.30642020383
1.94130014554
1.78667691924
1.77978199949
1.77954937217
1.77954319187
1.77954305604
1.77954305332
1.77954305318
1.7795430531
1.77954305305
1.77954305307
1.77954305452
1.77954308106
130.265075765
5.30641869476
1.94129965452
1.78667687526
1.77978199855
1.77954937353
1.77954319331
1.77954305749
1.77954305477
1.77954305463
1.77954305455
1.7795430545
1.77954305452
1.77954305598
1.77954308252
130.265081161
5.30636509179
1.94128879526
1.78667598352
1.77978197863
1.77954939841
1.77954321979
1.77954308402
1.7795430813
1.77954308116
1.77954308108
1.77954308103
1.77954308106
1.77954308252
1.77954310929
130.250300444
130.256605045
130.258700493
130.258745367
130.258747169
130.258745198
130.25874541
130.258744528
130.258744463
130.258745047
130.258744978
130.258744852
130.258744834
130.258744339
130.258749207
130.256605777
7.69098037812
5.55709889609
5.50544815015
5.50430555864
5.50428816241
5.50428729252
5.50428752237
5.50428775456
5.50428754207
5.50428782667
5.50428761581
5.50428769099
5.50428600755
5.50422491953
130.258700494
5.55709894818
2.1106509161
1.95969974972
1.95329341142
1.95308702886
1.95308174522
1.95308164412
1.95308164093
1.95308164064
1.95308165121
1.95308164415
1.95308162796
1.95308107852
1.95306891542
130.258745367
5.50544816254
1.95969974679
1.79491773312
1.7875152778
1.7872644025
1.78725772069
1.78725757487
1.78725757165
1.78725757201
1.78725757253
1.78725757222
1.78725757049
1.78725752119
1.78725652309
130.258747168
5.50430557044
1.95329340904
1.78751527752
1.78003832161
1.77978407389
1.77977728361
1.77977713411
1.77977713126
1.77977713122
1.77977713123
1.77977713121
1.77977713117
1.77977713014
1.77977710787
130.258745196
5.50428821564
1.95308703167
1.78726440264
1.77978407389
1.77952965504
1.77952285961
1.77952270995
1.77952270712
1.77952270704
1.77952270704
1.77952270703
1.77952270709
1.77952270865
1.77952273658
130.258745293
5.50428738687
1.95308175263
1.78725772119
1.77977728363
1.77952285961
1.77951606402
1.77951591436
1.77951591152
1.77951591145
1.77951591144
1.77951591143
1.77951591149
1.77951591315
1.77951594289
130.258745399
5.50428758955
1.95308164896
1.78725757522
1.77977713413
1.77952270995
1.77951591436
1.77951576468
1.77951576184
1.77951576177
1.77951576177
1.77951576176
1.77951576182
1.77951576348
1.77951579326
130.258744462
5.50428784894
1.95308164784
1.7872575721
1.77977713127
1.77952270712
1.77951591152
1.77951576184
1.77951575901
1.77951575894
1.77951575893
1.77951575893
1.77951575899
1.77951576064
1.77951579043
130.258745026
5.50428757407
1.95308164158
1.78725757201
1.77977713121
1.77952270704
1.77951591145
1.77951576177
1.77951575894
1.77951575887
1.77951575887
1.77951575886
1.77951575892
1.77951576057
1.77951579036
130.258744975
5.50428785983
1.95308165229
1.78725757254
1.77977713123
1.77952270704
1.77951591144
1.77951576177
1.77951575893
1.77951575887
1.77951575886
1.77951575885
1.77951575892
1.77951576057
1.77951579036
130.258744358
5.50428768065
1.95308164995
1.78725757264
1.77977713123
1.77952270703
1.77951591143
1.77951576175
1.77951575892
1.77951575886
1.77951575885
1.77951575884
1.77951575891
1.77951576056
1.77951579035
130.258744792
5.50428774298
1.95308163175
1.78725757073
1.77977713118
1.77952270709
1.77951591149
1.77951576182
1.77951575899
1.77951575892
1.77951575892
1.77951575891
1.77951575897
1.77951576063
1.77951579042
130.258744769
5.50428606136
1.95308108096
1.78725752128
1.77977713014
1.77952270864
1.77951591315
1.77951576347
1.77951576064
1.77951576057
1.77951576057
1.77951576056
1.77951576063
1.77951576228
1.77951579209
130.258749713
5.50422497398
1.95306891808
1.78725652321
1.77977710787
1.77952273658
1.77951594289
1.77951579326
1.77951579043
1.77951579037
1.77951579036
1.77951579035
1.77951579042
1.77951579209
1.77951582215
130.250268455
130.256579274
130.258672402
130.258720233
130.25872127
130.258720066
130.258720021
130.258719271
130.258719084
130.25871996
130.258719851
130.258719697
130.258719633
130.258718719
130.258723826
130.256580223
7.69374643599
5.55912926903
5.50744092869
5.50629898644
5.50628093405
5.50628028818
5.50628061655
5.50628082691
5.50628076244
5.50628105176
5.50628088567
5.50628091297
5.50627924565
5.50621803903
130.258672402
5.55912931084
2.11104413194
1.9599273317
1.95351149602
1.95330472036
1.9532994323
1.95329933558
1.95329932545
1.95329933504
1.9532993477
1.9532993371
1.95329931476
1.95329876658
1.95328656495
130.258720232
5.50744093345
1.95992732362
1.79494366578
1.78752863933
1.78727725358
1.78727055239
1.7872704111
1.7872704027
1.78727040383
1.78727040929
1.78727040378
1.78727040154
1.78727035237
1.78726935489
130.258721268
5.50629891518
1.95351148312
1.78752863195
1.78003886427
1.77978408025
1.77977727439
1.77977712463
1.77977712172
1.77977712177
1.77977712183
1.77977712176
1.77977712169
1.77977712068
1.77977709835
130.258720059
5.50628098454
1.95330472176
1.7872772531
1.77978408021
1.7795291401
1.7795223291
1.77952217932
1.7795221765
1.77952217643
1.77952217643
1.77952217642
1.77952217648
1.77952217806
1.77952220609
130.258719885
5.5062804057
1.95329943958
1.78727055279
1.77977727439
1.77952232909
1.77951551831
1.77951536833
1.77951536547
1.77951536541
1.77951536538
1.77951536536
1.77951536532
1.77951536711
1.77951539698
130.258720398
5.50628069249
1.95329934042
1.78727041096
1.77977712452
1.77952217931
1.77951536833
1.77951521829
1.77951521542
1.77951521538
1.77951521537
1.77951521536
1.77951521542
1.77951521709
1.77951524699
130.258719093
5.50628092682
1.95329933238
1.78727040312
1.77977712162
1.77952217649
1.77951536547
1.77951521543
1.7795152126
1.77951521253
1.77951521252
1.77951521251
1.77951521258
1.77951521424
1.77951524414
130.258719799
5.50628073431
1.95329932544
1.78727040289
1.77977712169
1.77952217642
1.77951536541
1.77951521538
1.77951521253
1.77951521246
1.7795152124
1.77951521243
1.7795152125
1.77951521416
1.77951524407
130.258719842
5.50628108128
1.95329934411
1.78727040811
1.77977712178
1.77952217643
1.77951536538
1.77951521537
1.77951521252
1.77951521243
1.7795152124
1.77951521243
1.77951521249
1.77951521416
1.77951524406
130.258718786
5.50628096741
1.95329934336
1.78727040418
1.77977712176
1.77952217642
1.77951536537
1.77951521535
1.77951521251
1.7795152124
1.77951521242
1.77951521243
1.7795152125
1.77951521416
1.77951524406
130.258719603
5.5062809699
1.95329931787
1.78727040159
1.77977712166
1.77952217648
1.77951536544
1.77951521542
1.77951521258
1.77951521248
1.77951521249
1.77951521249
1.77951521256
1.77951521423
1.77951524412
130.258719572
5.50627934226
1.95329877288
1.78727035273
1.77977712069
1.77952217805
1.77951536711
1.77951521708
1.77951521424
1.77951521415
1.77951521415
1.77951521416
1.77951521422
1.77951521589
1.77951524581
130.258724357
5.50621809083
1.95328656659
1.78726935082
1.77977709831
1.77952220609
1.77951539696
1.77951524698
1.77951524414
1.77951524407
1.77951524406
1.77951524406
1.77951524412
1.77951524581
1.779515276
130.250279807
130.256588027
130.258681057
130.258728864
130.258729841
130.258728576
130.25872844
130.258729261
130.258727534
130.258730255
130.258730205
130.258730046
130.258729834
130.258728098
130.258734175
130.256590026
7.69346137874
5.55900398806
5.50730270951
5.50616420724
5.50614329538
5.50614266939
5.50614297152
5.50614266696
5.50614276221
5.50614328138
5.50614293306
5.50614273178
5.50614141691
5.50608009169
130.258681058
5.55900385745
2.11104123352
1.95992575853
1.95351001137
1.95330317378
1.9532978247
1.9532977787
1.95329751756
1.95329770849
1.9532978049
1.95329772885
1.95329748968
1.95329715441
1.95328491877
130.258728864
5.50730225815
1.95992562057
1.79494368339
1.7875286529
1.78727726394
1.78727055729
1.78727042077
1.7872703841
1.78727040859
1.78727041978
1.78727040861
1.78727038197
1.78727035723
1.78726935815
130.258729841
5.50616354629
1.95350978768
1.78752862484
1.78003886117
1.77978407544
1.77977726915
1.77977711961
1.77977711572
1.77977711659
1.779777117
1.7797771166
1.77977711578
1.77977711555
1.77977709307
130.258728509
5.5061429425
1.95330306645
1.78727725705
1.77978407501
1.77952913308
1.77952232204
1.77952217203
1.77952216918
1.77952216911
1.77952216915
1.77952216915
1.77952216918
1.77952217079
1.77952219884
130.258728459
5.50614257682
1.95329762729
1.78727053357
1.77977726829
1.77952232202
1.77951551093
1.77951536098
1.7795153581
1.77951535805
1.77951535798
1.77951535796
1.77951535785
1.77951535976
1.77951538966
130.258730571
5.50614281447
1.95329770516
1.7872704154
1.77977711908
1.77952217199
1.77951536098
1.77951521094
1.77951520803
1.77951520803
1.77951520803
1.77951520803
1.77951520808
1.77951520977
1.77951523967
130.258727546
5.50614264955
1.9532975558
1.78727038527
1.77977711546
1.77952216916
1.77951535812
1.77951520806
1.77951520525
1.7795152052
1.77951520517
1.77951520518
1.77951520525
1.77951520692
1.77951523683
130.258729585
5.50614251472
1.95329748889
1.78727038231
1.77977711571
1.77952216907
1.77951535805
1.77951520804
1.7795152052
1.77951520512
1.77951520505
1.77951520506
1.77951520515
1.77951520681
1.77951523675
130.258730164
5.50614308606
1.9532976953
1.78727041173
1.77977711646
1.77952216914
1.77951535799
1.77951520803
1.77951520518
1.77951520505
1.77951520549
1.77951520508
1.77951520512
1.77951520681
1.77951523674
130.258728167
5.50614288808
1.95329753539
1.7872703842
1.77977711581
1.77952216913
1.77951535798
1.77951520803
1.77951520517
1.779515205
1.77951520507
1.77951520532
1.77951520518
1.77951520683
1.77951523675
130.258729895
5.50614251611
1.95329757134
1.78727039025
1.77977711569
1.77952216919
1.77951535806
1.7795152081
1.77951520526
1.77951520561
1.77951520518
1.77951520565
1.77951520533
1.77951520692
1.77951523682
130.258729904
5.50614118546
1.95329714277
1.78727035742
1.77977711552
1.77952217077
1.77951535978
1.77951520977
1.77951520693
1.77951520734
1.77951520724
1.77951520694
1.779515207
1.7795152086
1.77951523858
130.258734376
5.50608012898
1.95328494407
1.7872693553
1.77977709306
1.77952219883
1.77951538964
1.77951523967
1.77951523683
1.77951523677
1.77951523676
1.77951523675
1.77951523682
1.77951523858
1.77951526887
130.250273825
130.256576919
130.258669567
130.258719036
130.258719773
130.258719574
130.258719497
130.258726249
130.258718253
130.258724434
130.258724126
130.258723999
130.258724076
130.258725387
130.258722379
130.256585946
7.69344756484
5.55899746273
5.5072956117
5.50615745441
5.50613632543
5.50613596479
5.50613607092
5.5061359899
5.50613605371
5.50613633166
5.50613621818
5.50613611779
5.50613453847
5.50607344612
130.258669579
5.55899764106
2.11104098201
1.95992557601
1.95350983922
1.95330299831
1.95329767924
1.95329761007
1.95329740945
1.95329756292
1.95329762993
1.9532975713
1.9532973906
1.95329700449
1.95328478358
130.25871906
5.50729542625
1.95992547507
1.79494366738
1.78752864265
1.78727725477
1.7872705533
1.7872704123
1.78727038953
1.78727040452
1.78727041035
1.78727040305
1.78727039103
1.78727035312
1.78726935139
130.258719792
5.50615715826
1.95350966259
1.78752862403
1.78003886078
1.77978407456
1.77977726874
1.77977711887
1.77977711549
1.77977711569
1.77977711592
1.77977711564
1.77977711543
1.7797771146
1.77977709216
130.25871959
5.50613621228
1.95330292446
1.78727724991
1.7797840743
1.77952913309
1.7795223227
1.77952217173
1.77952216887
1.77952216878
1.77952216873
1.77952216882
1.77952216888
1.77952217045
1.7795221985
130.25871883
5.5061359849
1.95329752301
1.78727054155
1.77977726826
1.77952232269
1.77951551073
1.77951536067
1.77951535779
1.77951535779
1.77951535772
1.77951535774
1.77951535781
1.77951535951
1.77951538938
130.258717923
5.50613594643
1.9532975591
1.78727040763
1.77977711876
1.77952217171
1.77951536068
1.77951521065
1.77951520777
1.77951520777
1.77951520777
1.77951520777
1.77951520783
1.77951520951
1.77951523941
130.258718327
5.50613602851
1.95329743514
1.78727038795
1.77977711548
1.77952216882
1.77951535783
1.77951520782
1.779515205
1.77951520495
1.77951520495
1.77951520495
1.77951520502
1.77951520667
1.77951523658
130.258723202
5.50613591274
1.95329739111
1.78727039211
1.77977711545
1.77952216879
1.77951535779
1.77951520778
1.77951520495
1.77951520491
1.77951520502
1.77951520493
1.77951520497
1.77951520662
1.77951523651
130.258724684
5.5061363625
1.95329754439
1.78727040301
1.77977711554
1.7795221688
1.77951535776
1.77951520777
1.77951520496
1.77951520494
1.77951520553
1.77951520483
1.77951520489
1.77951520663
1.7795152365
130.258725465
5.50613625391
1.95329742138
1.78727038777
1.77977711536
1.77952216881
1.77951535773
1.77951520777
1.77951520495
1.77951520492
1.77951520499
1.77951520537
1.77951520505
1.77951520664
1.77951523651
130.258723926
5.50613581751
1.95329742826
1.78727038739
1.77977711502
1.77952216887
1.77951535784
1.77951520784
1.77951520506
1.77951520564
1.77951520508
1.7795152057
1.77951520524
1.77951520674
1.77951523661
130.258723871
5.50613451824
1.95329699419
1.78727035286
1.77977711457
1.77952217045
1.77951535951
1.77951520951
1.77951520673
1.77951520748
1.77951520729
1.77951520688
1.77951520694
1.77951520841
1.77951523843
130.25873162
5.50607342414
1.95328478164
1.78726934926
1.77977709208
1.77952219848
1.77951538937
1.7795152394
1.77951523657
1.77951523655
1.77951523655
1.77951523656
1.77951523663
1.77951523842
1.779515269
130.250274048
130.256573571
130.258666611
130.258715675
130.258716353
130.25871628
130.258716238
130.258727588
130.258715498
130.258724471
130.258724169
130.258724043
130.258724113
130.258727138
130.258722015
130.256586816
7.69340236928
5.55897370723
5.50727085114
5.50613266089
5.50611147609
5.50611174471
5.50611129361
5.50611204239
5.50611219698
5.50611157677
5.50611239309
5.50611277367
5.5061098859
5.50605007862
130.258666603
5.55897527642
2.11103976526
1.95992467724
1.95350895086
1.95330211783
1.95329697045
1.95329676176
1.95329685146
1.95329685777
1.95329674971
1.95329677968
1.95329687406
1.95329627748
1.95328413905
130.258715633
5.50727167217
1.9599247909
1.79494360818
1.78752860375
1.7872772167
1.78727052937
1.78727037709
1.78727037969
1.78727037954
1.78727037112
1.78727036568
1.78727038224
1.78727032792
1.78726932907
130.258716365
5.50613383077
1.95350900425
1.78752860507
1.78003885787
1.77978407271
1.77977726774
1.7797771172
1.77977711471
1.77977711448
1.77977711398
1.77977711409
1.77977711459
1.77977711337
1.77977709103
130.258716335
5.50611230251
1.95330224034
1.78727722524
1.77978407314
1.77952913317
1.77952232172
1.77952217185
1.77952216903
1.77952216884
1.77952216882
1.77952216899
1.77952216906
1.77952217064
1.77952219868
130.25871594
5.50611217586
1.95329698385
1.78727053248
1.77977726771
1.77952232172
1.77951551087
1.77951536088
1.77951535794
1.77951535793
1.77951535784
1.77951535782
1.77951535783
1.77951535973
1.77951538961
130.258717518
5.50611125407
1.95329684989
1.78727037812
1.77977711736
1.77952217182
1.77951536088
1.77951521086
1.77951520792
1.77951520799
1.77951520799
1.77951520799
1.77951520806
1.77951520974
1.77951523964
130.258715497
5.50611225459
1.95329685774
1.78727037857
1.77977711464
1.77952216887
1.77951535805
1.77951520803
1.77951520522
1.77951520517
1.77951520518
1.77951520518
1.77951520525
1.7795152069
1.77951523681
130.258723255
5.50611235394
1.95329685838
1.7872703833
1.77977711464
1.77952216885
1.779515358
1.779515208
1.77951520518
1.77951520513
1.77951520511
1.7795152051
1.77951520517
1.77951520679
1.7795152367
130.258724716
5.50611237321
1.95329677795
1.7872703646
1.77977711403
1.77952216893
1.77951535792
1.77951520799
1.77951520519
1.77951520512
1.7795152056
1.7795152049
1.77951520505
1.7795152068
1.7795152367
130.258727302
5.50611257751
1.95329684464
1.78727037826
1.77977711451
1.77952216899
1.77951535786
1.77951520798
1.77951520517
1.77951520501
1.77951520515
1.77951520542
1.77951520547
1.77951520688
1.77951523675
130.258723969
5.50611203182
1.95329673706
1.78727036526
1.77977711404
1.77952216905
1.779515358
1.77951520806
1.77951520525
1.77951520565
1.77951520529
1.77951520582
1.77951520624
1.77951520721
1.77951523718
130.258723915
5.50611088614
1.95329627566
1.78727032573
1.77977711328
1.77952217057
1.77951535973
1.77951520974
1.77951520692
1.77951520748
1.77951520739
1.77951520798
1.77951520948
1.77951520929
1.77951524149
130.258732908
5.50604951569
1.95328395888
1.78726931141
1.77977709047
1.77952219865
1.7795153896
1.77951523964
1.7795152368
1.77951523674
1.77951523678
1.77951523704
1.7795152374
1.77951524111
1.779515299
130.2502604
130.256575981
130.258668999
130.25871822
130.258718895
130.258718888
130.258718851
130.258722224
130.258717737
130.258726996
130.25872704
130.258726958
130.25872673
130.258723546
130.258722894
130.256573645
7.69339861823
5.55897197336
5.50726904438
5.50613095376
5.50610967229
5.50610991226
5.50610945189
5.50611024487
5.5061103067
5.5061097086
5.50611064607
5.5061107744
5.50610808069
5.50604796411
130.25866899
5.55897326514
2.11103955553
1.95992460611
1.9535088823
1.95330205371
1.95329685919
1.9532966915
1.95329679954
1.95329678917
1.95329669103
1.9532967362
1.95329682096
1.95329619238
1.95328405988
130.258718191
5.50726986437
1.9599247148
1.79494359748
1.78752859843
1.78727721254
1.78727052176
1.78727037212
1.78727037821
1.78727037561
1.78727036769
1.78727036362
1.78727037837
1.78727032181
1.78726932399
130.258718905
5.50613211976
1.95350896765
1.78752860326
1.7800388577
1.77978407261
1.77977726694
1.77977711692
1.77977711464
1.7797771144
1.77977711411
1.77977711431
1.77977711474
1.77977711328
1.77977709111
130.25871894
5.50611047586
1.95330217302
1.78727722047
1.77978407299
1.77952913241
1.7795223216
1.77952217239
1.77952216971
1.77952216886
1.77952216917
1.77952216973
1.77952216984
1.77952217145
1.77952219951
130.258721434
5.50611035105
1.95329693098
1.78727052868
1.77977726726
1.77952232161
1.77951551152
1.77951536168
1.77951535837
1.77951535818
1.77951535789
1.77951535786
1.77951535795
1.77951536059
1.77951539051
130.258725992
5.5061096937
1.95329679609
1.78727037673
1.77977711711
1.77952217232
1.77951536172
1.77951521169
1.77951520838
1.77951520881
1.77951520882
1.77951520883
1.77951520891
1.77951521063
1.77951524054
130.258717658
5.50611051358
1.9532967983
1.78727037683
1.77977711449
1.77952216888
1.77951535889
1.77951520887
1.77951520608
1.77951520605
1.77951520603
1.77951520605
1.77951520613
1.77951520777
1.7795152377
130.258726357
5.5061106601
1.95329682099
1.78727038021
1.77977711474
1.77952216889
1.77951535881
1.77951520889
1.77951520608
1.77951520597
1.77951520539
1.77951520544
1.77951520561
1.7795152071
1.7795152373
130.258727107
5.50611064117
1.95329673948
1.78727036248
1.77977711418
1.7795221694
1.77951535838
1.77951520884
1.77951520604
1.7795152056
1.77951520536
1.77951520515
1.77951520568
1.77951520731
1.77951523729
130.258722546
5.50611082903
1.95329680534
1.78727037796
1.77977711467
1.77952216972
1.77951535785
1.77951520878
1.77951520601
1.77951520509
1.77951520558
1.77951520665
1.77951521308
1.77951520821
1.77951523801
130.25872685
5.50611030091
1.9532966868
1.78727036385
1.7797771141
1.7795221698
1.7795153585
1.77951520892
1.77951520565
1.77951520577
1.77951520676
1.77951522176
1.77951529502
1.77951521741
1.77951525633
130.258726807
5.50610901229
1.95329620696
1.78727032162
1.77977711325
1.77952217102
1.77951536056
1.77951521063
1.77951520743
1.77951520801
1.77951521654
1.77951531341
1.77951554208
1.77951526762
1.7795156438
130.258728019
5.50604777068
1.9532839193
1.78726931098
1.77977709067
1.77952219945
1.77951539049
1.77951524053
1.77951523755
1.77951523729
1.77951523816
1.77951524704
1.77951527972
1.77951559122
1.77951992942
130.250260264
130.256581911
130.258674889
130.258724418
130.258725088
130.258725204
130.258725211
130.258722257
130.258720204
130.258716973
130.258716548
130.25871648
130.258716733
130.258723575
130.25872489
130.256573484
7.69338858522
5.55896667859
5.50726370559
5.50612569776
5.50610424905
5.50610407241
5.50610374239
5.50610469625
5.50610428997
5.50610406544
5.50610539756
5.50610475913
5.50610274363
5.50604168361
130.258674889
5.55896711199
2.11103842329
1.95992430756
1.9535085741
1.95330178618
1.95329621787
1.95329638098
1.95329657124
1.95329648759
1.95329646654
1.95329656711
1.95329660188
1.95329577922
1.95328373104
130.258724442
5.50726422077
1.95992436681
1.79494355308
1.78752857751
1.78727719688
1.78727047112
1.78727035185
1.78727037042
1.78727035731
1.78727035629
1.78727035763
1.7872703696
1.78727028387
1.78726930397
130.258725099
5.50612672551
1.95350881814
1.78752859325
1.78003885692
1.77978407188
1.7797772651
1.77977711631
1.7797771144
1.77977711361
1.77977711336
1.77977711362
1.77977711398
1.77977711171
1.77977709028
130.258725268
5.50610467528
1.95330189351
1.78727720112
1.77978407207
1.77952913234
1.7795223219
1.77952217159
1.77952216883
1.77952216916
1.77952216875
1.77952216905
1.77952216907
1.77952217035
1.77952219837
130.258721375
5.50610442458
1.95329668197
1.78727051802
1.77977726674
1.77952232195
1.7795155107
1.77951536063
1.7795153579
1.77951535829
1.77951535789
1.77951535827
1.7795153583
1.77951535952
1.77951538934
130.258717706
5.50610489412
1.95329658872
1.78727036964
1.77977711708
1.77952217165
1.77951536063
1.77951521062
1.77951520786
1.77951520779
1.77951520776
1.77951520776
1.77951520791
1.77951520947
1.77951523939
130.258719392
5.50610532913
1.95329653116
1.7872703666
1.77977711446
1.77952216903
1.77951535784
1.77951520779
1.779515205
1.77951520493
1.77951520495
1.77951520544
1.77951520576
1.77951520712
1.7795152369
130.258716599
5.50610560954
1.9532966652
1.78727037387
1.77977711443
1.77952216924
1.77951535777
1.77951520775
1.77951520493
1.77951520497
1.77951520541
1.77951520579
1.77951520708
1.77951520738
1.77951523716
130.258716052
5.50610559637
1.95329658769
1.78727035717
1.77977711364
1.77952216871
1.7795153578
1.77951520778
1.77951520495
1.77951520547
1.77951520566
1.77951521139
1.77951524985
1.77951521175
1.77951523919
130.258722578
5.50610569859
1.95329665233
1.78727037277
1.77977711394
1.77952216877
1.77951535797
1.7795152081
1.77951520559
1.7795152058
1.7795152149
1.7795153443
1.77951615486
1.77951530429
1.77951531488
130.258716009
5.50610523095
1.953296498
1.78727035356
1.77977711333
1.77952216921
1.77951535792
1.77951520839
1.77951520604
1.77951521228
1.77951535521
1.77951726013
1.77952679784
1.77951648624
1.77951759242
130.258715982
5.50610316077
1.95329591026
1.78727030182
1.77977711237
1.77952217043
1.77951535971
1.77951521029
1.7795152092
1.77951526256
1.77951636988
1.77952879212
1.77955880513
1.77952258473
1.77956570542
130.258728053
5.5060428042
1.95328376274
1.78726930386
1.77977708996
1.77952219834
1.77951538934
1.77951523991
1.77951523748
1.77951524205
1.77951533787
1.77951643663
1.77952061845
1.77956009128
1.78008730853
130.250271408
130.256572938
130.258665954
130.258715337
130.258716118
130.258716057
130.258716028
130.258727245
130.258720511
130.258716562
130.258716164
130.258716113
130.258716386
130.258727079
130.258721174
130.256584443
7.6933855797
5.5589656428
5.5072624951
5.50612477977
5.50610292738
5.50610333591
5.50610303369
5.50610406183
5.50610367824
5.50609927894
5.50610349366
5.50610398088
5.50610228556
5.50604092712
130.258666033
5.55896617137
2.11103846387
1.9599242573
1.95350855149
1.953301721
1.95329627546
1.95329634742
1.95329655954
1.95329644967
1.95329632448
1.95329645326
1.95329656182
1.95329575086
1.95328369942
130.258715323
5.50726352972
1.95992432748
1.79494354917
1.78752857698
1.78727719283
1.7872704801
1.78727034907
1.78727036741
1.78727035574
1.78727034367
1.78727035163
1.78727036573
1.78727028949
1.78726930236
130.258716112
5.50612605417
1.95350877524
1.78752858578
1.78003885576
1.77978407169
1.77977726582
1.77977711624
1.77977711401
1.77977711344
1.77977711263
1.77977711339
1.77977711383
1.77977711214
1.7797770902
130.258716052
5.50610388515
1.95330187035
1.78727719939
1.77978407194
1.7795291335
1.77952232195
1.77952217155
1.77952216874
1.779522169
1.77952216865
1.77952216873
1.77952216879
1.77952217029
1.77952219834
130.258721643
5.50610372048
1.95329667187
1.78727051562
1.77977726687
1.77952232198
1.77951551067
1.7795153606
1.77951535789
1.77951535877
1.77951535788
1.77951535784
1.77951535824
1.77951535945
1.77951538932
130.258717283
5.50610405808
1.95329655263
1.78727036611
1.77977711657
1.77952217162
1.7795153606
1.77951521059
1.77951520785
1.77951520777
1.7795152077
1.7795152077
1.77951520791
1.77951520943
1.77951523936
130.258720184
5.50610471037
1.95329650811
1.78727036312
1.77977711385
1.77952216971
1.77951535784
1.77951520776
1.77951520494
1.77951520489
1.77951520493
1.77951520585
1.77951520947
1.77951520746
1.77951523696
130.258716194
5.5061047478
1.95329662199
1.7872703695
1.77977711419
1.77952216874
1.77951535771
1.7795152077
1.77951520488
1.77951520497
1.77951520681
1.77951522494
1.77951535847
1.77951522306
1.77951524182
130.258715637
5.50610353524
1.95329646415
1.78727035097
1.77977711336
1.77952216865
1.77951535778
1.77951520773
1.77951520495
1.77951520718
1.77951524473
1.77951582254
1.77951986006
1.77951568953
1.77951544628
130.258727121
5.50610429016
1.9532965391
1.78727036245
1.77977711365
1.7795221687
1.77951535799
1.77951520801
1.77951520677
1.7795152464
1.77951617021
1.77952953655
1.7796126512
1.77952567276
1.77952302326
130.258715618
5.50610329619
1.95329638562
1.78727033256
1.77977711248
1.7795221689
1.77951535789
1.77951520885
1.77951522777
1.77951589296
1.77953058412
1.7797217605
1.78067585037
1.77964928607
1.77974240708
130.25871564
5.50610259094
1.9532958697
1.78727030031
1.77977711216
1.77952217033
1.77951535974
1.77951521484
1.77951539521
1.77952090968
1.7796324392
1.7808456069
1.78386984182
1.7802255534
1.78423573912
130.258732616
5.50604081474
1.95328365477
1.78726929665
1.77977708978
1.77952219829
1.7795153893
1.77951524027
1.7795152537
1.77951573082
1.77952539421
1.77963272185
1.78004237785
1.78387647243
1.83031462494
130.250259488
130.256572774
130.258665786
130.258715188
130.258715963
130.25871592
130.258715922
130.258715954
130.258724138
130.258727239
130.258727281
130.258727269
130.258727198
130.258715783
130.258721172
130.256576756
7.6933774477
5.55896398177
5.50726106056
5.50612276783
5.50610157091
5.50610184467
5.50610183832
5.50610286376
5.50610261864
5.50609940721
5.50609645329
5.50610182876
5.50610100018
5.50603886674
130.258665838
5.55896361953
2.11103831207
1.95992424339
1.95350854099
1.95330170046
1.95329623935
1.95329628861
1.95329646314
1.95329637417
1.9532962661
1.95329584464
1.95329638723
1.95329570553
1.95328355854
130.258715181
5.50726224175
1.95992425584
1.79494354713
1.78752857361
1.78727719297
1.78727047904
1.78727034656
1.78727035796
1.78727035462
1.7872703408
1.78727031336
1.78727035435
1.78727028899
1.78726929346
130.258715952
5.50612428764
1.95350859837
1.78752858443
1.78003885578
1.77978407168
1.7797772655
1.7797771161
1.77977711373