/*--------------------------------*- C++ -*----------------------------------*\
| =========                 |                                                 |
| \\      /  F ield         | OpenFOAM: The Open Source CFD Toolbox           |
|  \\    /   O peration     | Version:  2406                                  |
|   \\  /    A nd           | Website:  www.openfoam.com                      |
|    \\/     M anipulation  |                                                 |
\*---------------------------------------------------------------------------*/
FoamFile
{
    version     2.0;
    format      ascii;
    arch        "LSB;label=32;scalar=64";
    class       volScalarField;
    location    "0.01";
    object      p;
}
// * * * * * * * * * * * * * * * * * * * * * * * * * * * * * * * * * * * * * //

dimensions      [0 2 -2 0 0 0 0];

internalField   nonuniform List<scalar> 
29767
(
0.148053639044
0.13950060911
0.141115463771
0.134961721913
0.136235828804
0.132360353956
0.13314445926
0.130689196537
0.131150045196
0.129608868684
0.129870718613
0.128961797634
0.129098870635
0.128675794834
0.128726705466
0.139501048954
0.116349811994
0.119918210708
0.111867895099
0.113397523581
0.109267114482
0.11004887932
0.107586641492
0.108030158225
0.106506561343
0.10675502933
0.105860326727
0.105989304421
0.105573577283
0.105621778622
0.141113577565
0.119916154402
0.126587479637
0.1178063805
0.120541111002
0.116109733319
0.11719876259
0.11465650359
0.115158011348
0.113634581639
0.113878825318
0.112999647009
0.1131164554
0.112711407992
0.112754443558
0.134961640671
0.111867588189
0.117807837771
0.10734742352
0.110195962803
0.105262584619
0.106376849215
0.103732833542
0.104204722047
0.102689457861
0.102899303578
0.102045127325
0.10213853889
0.101749392653
0.101784429277
0.136230650706
0.113392215735
0.120537696179
0.110191136179
0.113573464548
0.108611213134
0.10992058492
0.107261250363
0.10779206361
0.106277810619
0.106497044138
0.105651018808
0.105741683924
0.105358488383
0.105391800187
0.132358334338
0.109264895208
0.116109201857
0.105260551377
0.108614188835
0.103396403728
0.104698697238
0.101949658829
0.102465203328
0.100929901573
0.101132673344
0.100287060596
0.100366469334
0.0999873070074
0.100016950854
0.133134815522
0.110039097836
0.11719090289
0.106367360145
0.109916141646
0.104690801528
0.106093293839
0.10333610676
0.103891831236
0.102355813986
0.102570900042
0.101727548977
0.101807909139
0.101429453049
0.101459072478
0.130683859585
0.107581064937
0.114652671017
0.103727282254
0.107261108591
0.101946047353
0.103341171326
0.100537726064
0.101086240325
0.0995327297811
0.0997408109496
0.0988937374528
0.0989698762252
0.0985916914669
0.0986198809437
0.131135061147
0.10801497297
0.115144873722
0.10418961839
0.107782403635
0.102451385409
0.103886629347
0.101074944331
0.101643450678
0.100086838172
0.100302818219
0.0994549181731
0.0995334925037
0.099154919893
0.0991843589014
0.129598969274
0.106496356159
0.113626255373
0.102679084572
0.106273325783
0.100921294455
0.10235674859
0.0995276358735
0.100094252549
0.0985284017423
0.0987418413688
0.0978904732993
0.0979671619699
0.0975876053612
0.0976164119667
0.129849820908
0.106733866338
0.113859846813
0.102878008637
0.106481586662
0.101112347079
0.102559901667
0.0997227063378
0.100297013972
0.0987273685772
0.0989447676067
0.09809156068
0.0981702381802
0.0977896044221
0.0978198194601
0.128946310481
0.105844466907
0.1129857812
0.102028898003
0.105641071508
0.100272348425
0.101723080903
0.0988823534964
0.0994570360623
0.0978840596346
0.0981008470781
0.0972458414929
0.0973237912478
0.0969424360536
0.0969723261475
0.129071810645
0.10596192717
0.113091344512
0.102110854933
0.105720096781
0.100339504066
0.101790711283
0.0989448768786
0.0995214558569
0.0979455806605
0.098163972124
0.0973072883739
0.0973864852377
0.0970040667037
0.0970351183795
0.128654003005
0.10555135975
0.112691227138
0.101726630899
0.105342167306
0.099965817586
0.101418477795
0.0985732310285
0.0991504217665
0.0975738631217
0.0977921731544
0.0969349508162
0.0970137955809
0.0966311583524
0.0966618924981
0.128693490963
0.105588211893
0.112723130736
0.101750452413
0.105363928747
0.0999835673756
0.101435480984
0.0985882954451
0.0991658282506
0.0975881146129
0.097806972815
0.0969490226121
0.097028485457
0.0966453518045
0.0966767687584
0.114248452492
0.112649528536
0.113029027496
0.110503774519
0.111048649488
0.108787805676
0.109229984119
0.107527808253
0.10784046659
0.106654355452
0.106854619184
0.10611203974
0.10622506887
0.105868962061
0.105913369369
0.11264999998
0.110302776703
0.110688384096
0.108027101955
0.108518717921
0.106294626118
0.106717693639
0.105046382674
0.105345982793
0.104184126332
0.104375453147
0.103648343788
0.103756023536
0.103407358154
0.103449911797
0.113027317123
0.110686453651
0.111438758697
0.108569530411
0.109275675534
0.106984219432
0.107456102696
0.105786793849
0.106082866328
0.104934359443
0.105110133363
0.104396912901
0.104491633354
0.104151261213
0.104189035673
0.110503564812
0.108026571526
0.108570523367
0.105290948424
0.105971201819
0.103548981877
0.103996428674
0.102312785517
0.102577293411
0.101452307918
0.101596965557
0.10091028737
0.100983979752
0.100658951835
0.100689279068
0.111043570099
0.108513444256
0.109271956163
0.10596664063
0.106817216629
0.104349121886
0.104877110029
0.103177772823
0.103462807962
0.102341843829
0.102484991062
0.101805275149
0.101872834504
0.101552541494
0.101580495272
0.108785416553
0.106291927225
0.106982875577
0.103546687073
0.104351422551
0.101803005878
0.102306778488
0.100574779587
0.100842538524
0.0997185252482
0.0998474758298
0.0991764423109
0.0992358094528
0.0989219811687
0.0989467652197
0.109220299137
0.106707791827
0.107447703154
0.103987100886
0.104872427665
0.102299545204
0.102851615367
0.10111122219
0.10139777351
0.100273142271
0.100405907498
0.0997356692666
0.0997939015427
0.0994815216468
0.0995061256006
0.107521815052
0.105040040104
0.105781821384
0.102306732339
0.103176519433
0.100570953118
0.101115025232
0.0993544590909
0.0996336063047
0.0985018002497
0.09862797639
0.0979570317174
0.0980100695828
0.0976981322589
0.0977208473893
0.107825241089
0.105330519671
0.106068937088
0.10256229186
0.103452615388
0.100829446626
0.101392261304
0.0996237743096
0.0999129770707
0.098778502205
0.098908324782
0.0982368433977
0.098290827884
0.0979789545626
0.098002295174
0.106643489879
0.104172857868
0.104924498593
0.101441204652
0.102335766308
0.0997095279664
0.10027219709
0.0984965500244
0.0987836677857
0.0976448636824
0.0977720358825
0.0970988944747
0.0971506411049
0.0968383651976
0.0968608338473
0.106833241624
0.104353799539
0.105090065897
0.101575663127
0.10246865527
0.0998279126798
0.100394221115
0.0986114904851
0.0989021094807
0.0977601224944
0.0978892356301
0.0972148191966
0.0972675528357
0.0969547368208
0.0969779940321
0.106095290636
0.103631139561
0.104381151575
0.100893118929
0.1017932738
0.0991612404762
0.0997287883571
0.0979453923959
0.0982360182876
0.097092408785
0.097220710544
0.0965453067511
0.0965971177551
0.0962839530655
0.0963067338323
0.10619725371
0.10372788772
0.104465109545
0.100956093062
0.101849971565
0.09920952323
0.0997756219675
0.0979866689677
0.0982778926076
0.0971316948831
0.0972607509334
0.0965841705973
0.0966366372837
0.0963229068542
0.0963463586448
0.10584564445
0.103383536028
0.104128882325
0.100635032554
0.101533802218
0.0988998277353
0.0994677626448
0.0976793265492
0.0979710507757
0.0968245283679
0.0969533833131
0.0962764923307
0.096328518721
0.0960147036893
0.0960377798791
0.105879095557
0.103415266718
0.104155983657
0.100654798204
0.101550974306
0.0989137349153
0.0994810294984
0.0976905719049
0.0979823610667
0.096834871984
0.096964031177
0.0962866698635
0.0963390977761
0.0960250239897
0.0960485735428
0.115474631865
0.11363687502
0.113927512985
0.111353921292
0.111774476392
0.109494105442
0.109867134886
0.108120917512
0.10839092425
0.107167519526
0.107342186115
0.10657457407
0.106674853834
0.106305382772
0.106348212218
0.113637894719
0.111528994326
0.111901804321
0.109125909526
0.109580003652
0.107251087142
0.10762414213
0.105879419634
0.106141228488
0.104929793633
0.105095537573
0.104338447145
0.104432563143
0.104068812688
0.104109588942
0.113925256859
0.111898920169
0.112327915316
0.109504404786
0.110054770655
0.107707614528
0.108106629805
0.106370667453
0.106618345459
0.105428992069
0.105573998899
0.10483559507
0.104914957275
0.10456119091
0.10459680717
0.111354923282
0.109126225395
0.109507137494
0.106345161534
0.106911082088
0.104442385361
0.104818443441
0.103073228707
0.103285001434
0.102117858326
0.102228811781
0.101514490333
0.101570787753
0.101230989469
0.10125882998
0.111768278469
0.109573170105
0.110050560817
0.106903921517
0.107575939817
0.105100200979
0.105522565738
0.10377877793
0.103999820049
0.102841640697
0.102947614832
0.102243030102
0.102293331415
0.101958670682
0.101984902197
0.109493481838
0.10724983783
0.107708782819
0.104440608452
0.105106363156
0.102546234631
0.102963558703
0.101189316992
0.101395780187
0.100233440345
0.100323746533
0.0996220459515
0.099659631108
0.0993276656608
0.0993497231331
0.109855743229
0.107611993609
0.10809727738
0.104805439547
0.105517540201
0.10295078544
0.103391926578
0.101613868039
0.101830474187
0.100669412527
0.100762104005
0.100064570981
0.100104069945
0.0997742376447
0.0997983514673
0.108117065395
0.10587487528
0.106368829736
0.103067844984
0.103782619206
0.101185513102
0.101625181691
0.0998286684729
0.100039899176
0.0988719941817
0.0989580886881
0.0982593310455
0.0982937407118
0.0979643681672
0.0979867786778
0.108373499242
0.106122858712
0.106603104586
0.103265199079
0.103989149493
0.1013753441
0.101824922455
0.100019964138
0.100237570781
0.0990656864178
0.0991551802992
0.0984544532609
0.0984916626712
0.0981601569187
0.0981859228047
0.107158956375
0.104920397678
0.105422693861
0.102107237671
0.102841696341
0.100224029339
0.100677729849
0.0988661598286
0.0990835132834
0.0979079184366
0.0979953300888
0.0972934755401
0.0973286284683
0.0969970655221
0.0970218494924
0.107318248537
0.10507048213
0.105552437432
0.102201785002
0.102930885833
0.100295273555
0.100750637602
0.0989292171219
0.099149338469
0.097967710973
0.098057843896
0.0973515387198
0.0973899017675
0.0970544490385
0.0970833271195
0.106560032263
0.104322934464
0.104823532327
0.101497340826
0.10223778175
0.0996055685929
0.100068065864
0.0982459733549
0.0984680180062
0.0972856401547
0.09737545128
0.0966691482538
0.0967064347955
0.0963713567633
0.0963991966588
0.10664433276
0.104400820891
0.104886943435
0.101536685721
0.102270342061
0.0996234938822
0.100086478346
0.0982566087257
0.0984798028417
0.097292161711
0.0973839453121
0.0966732895991
0.0967135325735
0.0963746106478
0.09640636115
0.106283949164
0.104046309779
0.104542308734
0.101206488279
0.101946673322
0.0993032591123
0.0997709680418
0.0979424347127
0.098166929884
0.0969800217238
0.09707154367
0.0963617313598
0.0964009051647
0.0960628713137
0.0960932455398
0.106311335124
0.104071486145
0.104562447489
0.101218244
0.101955614118
0.0993069547259
0.0997744998401
0.0979428734789
0.0981678586401
0.0969785157612
0.0970712279556
0.0963591651299
0.0964002653166
0.096060139515
0.0960930379829
0.102086964712
0.101584019642
0.10164208394
0.100680215531
0.100854889754
0.0997983713823
0.0999860764541
0.0990488558108
0.0992024248401
0.0984757451352
0.0985845282031
0.0980975521899
0.0981653060305
0.0979226949766
0.0979547899804
0.10158466506
0.101179804313
0.101227502392
0.100342850769
0.100476261745
0.0994597535909
0.0996202962749
0.0987009127125
0.0988392976771
0.0981208882811
0.0982214456847
0.0977386621828
0.0978019912237
0.0975613622999
0.0975917838351
0.101640028991
0.101225169262
0.101334123703
0.100464619233
0.100610218413
0.0995925895134
0.0997513194883
0.0988434968565
0.0989700905976
0.098266949315
0.0983544434617
0.0978844657911
0.0979384080062
0.0977048349089
0.0977320732612
0.100680197193
0.100342379555
0.100466055558
0.0996780648409
0.0998084468744
0.0988215817472
0.0989559860243
0.0980720417535
0.0981723582588
0.0974917500707
0.0975565717605
0.0971042381973
0.0971431917407
0.0969192818734
0.0969411337083
0.100848711476
0.100469876132
0.100605669083
0.0998026076069
0.0999503098619
0.0989574826476
0.099097547883
0.0982164132064
0.0983126503324
0.0976397197475
0.0976973800765
0.0972526018777
0.0972859934253
0.0970664198786
0.0970867137037
0.0997958281772
0.099456757419
0.0995913724469
0.098818932235
0.0989608433017
0.0979757123114
0.0981052389514
0.0972307503481
0.0973152352862
0.0966507899394
0.0966974144538
0.0962605402438
0.0962861156006
0.0960711960969
0.0960884569773
0.0999742556823
0.099608319491
0.0997410664701
0.0989443097732
0.0990918086051
0.098095779149
0.0982315444779
0.0973550191871
0.0974409193941
0.0967778004033
0.0968227139638
0.0963878498404
0.0964117063738
0.0961980526085
0.0962153573393
0.0990420343186
0.0986935814361
0.0988380130388
0.0980649430262
0.0982156256387
0.097226218483
0.0973604900564
0.096486255473
0.096567538768
0.0959069281941
0.095946616541
0.0955145709481
0.0955342310579
0.0953225564898
0.0953379786157
0.0991838894508
0.0988206588209
0.0989532084066
0.0981538391359
0.0983002413588
0.0972986861167
0.0974342193057
0.0965548454351
0.0966368279084
0.0959746080893
0.0960140919839
0.0955818264101
0.0956013607904
0.0953896171705
0.0954057670192
0.0984630907273
0.0981076953752
0.0982556951571
0.0974786360203
0.0976331718619
0.0966400683355
0.0967775048778
0.0959006303191
0.0959814685597
0.0953205115821
0.0953575809756
0.094926417842
0.0949435964709
0.09473281552
0.0947475995552
0.0985586623947
0.098195504811
0.0983302909953
0.0975306079926
0.0976776178896
0.096673203452
0.0968085484739
0.0959261579805
0.0960065141434
0.0953430714548
0.0953800831501
0.0949479618542
0.0949654422516
0.0947542506732
0.0947698704901
0.0980778599285
0.0977184123679
0.0978661968476
0.0970838943018
0.0972389070896
0.0962423271358
0.0963802243345
0.0955005920019
0.0955810602726
0.094918631245
0.0949545121992
0.0945229731147
0.0945390075447
0.0943284075403
0.0943428991101
0.0981319068626
0.0977685104964
0.0979067283977
0.0971095841475
0.097258527883
0.0962540865954
0.0963895992884
0.0955058353798
0.0955855631543
0.0949211824042
0.0949570141551
0.0945247658197
0.0945411581717
0.0943303671213
0.0943455806197
0.0978952092441
0.0975333117794
0.0976787405054
0.0968909627944
0.0970446428886
0.0960446986659
0.0961819816779
0.0953000069888
0.0953799409055
0.0947162556858
0.0947514423432
0.0943195519442
0.0943349371473
0.0941245958417
0.094138772366
0.0979140065873
0.0975508788524
0.0976929489724
0.0969000453253
0.0970515490393
0.0960487820951
0.0961852199329
0.0953017463867
0.0953815331672
0.0947171546912
0.0947525976049
0.094320491379
0.0943364532388
0.0941260191889
0.0941410536922
0.102767076726
0.102328653931
0.102340517131
0.101407077256
0.101499545388
0.100442627017
0.100558097985
0.0996036420282
0.0997058188842
0.098957451219
0.099034865373
0.0985287127696
0.0985824159359
0.0983261848564
0.0983599453452
0.102330574677
0.102012109897
0.102028362539
0.101118093006
0.101201053626
0.100154195494
0.100260045687
0.0993149056821
0.099408147983
0.0986681558322
0.0987384312263
0.0982384963448
0.0982875882071
0.0980347313233
0.0980667392702
0.102336971745
0.102023570491
0.102042457043
0.101149945041
0.101200400243
0.100162235033
0.100247398519
0.0993151920712
0.09938860543
0.0986628963658
0.0987166954879
0.0982280468935
0.0982668530081
0.098019715654
0.0980490132124
0.101409885466
0.101119429219
0.101155640324
0.100279682343
0.100312204924
0.0992873662162
0.0993427188478
0.0984347858558
0.0984773676613
0.0977773369924
0.0978055865782
0.0973367988958
0.0973592863846
0.0971224489059
0.0971464590333
0.101490247
0.101190455675
0.101194324764
0.100299326465
0.100317045949
0.0992883079878
0.0993340697151
0.0984286532811
0.0984611761037
0.0977657752328
0.0977856823184
0.0973201876413
0.0973388811185
0.0971019612712
0.097128190926
0.100444373337
0.100154377303
0.100167324358
0.0992857799553
0.0993023988721
0.098276223466
0.098312725446
0.0974145557543
0.0974343681566
0.0967491024789
0.0967572349053
0.0963007628565
0.0963111124117
0.0960791683209
0.096102209709
0.100541562521
0.100241906464
0.100234384404
0.0993206482505
0.0993274515082
0.0982869999963
0.0983189663403
0.0974138512239
0.0974310551655
0.0967411484931
0.0967488324392
0.0962868191296
0.0963002688404
0.0960613858594
0.0960920532843
0.0996021845543
0.0993115274906
0.0993178154626
0.0984288354208
0.0984424454213
0.0974096898316
0.0974421549656
0.0965419251781
0.0965555532404
0.0958707519829
0.0958729025958
0.0954159915573
0.095424657113
0.0951894066908
0.0952170268615
0.0996812120735
0.0993814905904
0.0993680552796
0.0984449246386
0.0984477193152
0.0973955154172
0.0974245179489
0.0965108556924
0.096524225594
0.0958266363639
0.0958325947274
0.0953624496188
0.0953795867652
0.0951309160428
0.095171556091
0.0989506616539
0.0986589932964
0.0986610234837
0.0977644798874
0.0977772482428
0.0967362856541
0.0967699686799
0.0958620808281
0.0958752195289
0.0951830621877
0.0951863276528
0.0947219862886
0.094734943524
0.0944911968719
0.0945272150883
0.0990020071116
0.0987030713099
0.0986884657404
0.0977627033302
0.0977653968472
0.0967053367422
0.0967360438637
0.0958119700056
0.0958267288106
0.0951180265128
0.0951280474745
0.094645454753
0.0946709390062
0.0944087950971
0.0944623775819
0.0985146902759
0.0982216893345
0.0982196502215
0.0973151265901
0.0973268559447
0.0962774724363
0.0963127284579
0.0953952445072
0.0954106872281
0.0947087774033
0.0947161889898
0.0942413605288
0.0942614276294
0.0940065403089
0.0940530476452
0.0985417409973
0.0982440914169
0.0982312039031
0.0973071087406
0.0973118556186
0.0962481655404
0.0962815568105
0.0953505608512
0.0953685399644
0.0946511085776
0.0946663003649
0.09417315494
0.0942070081321
0.0939331063735
0.0939983136789
0.0983035115841
0.0980090015112
0.0980029612012
0.0970907187937
0.0971007177124
0.0960439998855
0.0960797355019
0.0951545316802
0.0951720846471
0.0944614450414
0.0944730663504
0.0939882517897
0.0940153226041
0.0937497473629
0.0938061770474
0.098312310476
0.0980161961552
0.0980064893109
0.097087057572
0.0970946808615
0.096031863019
0.0960673817462
0.0951354616107
0.095155234358
0.0944360032808
0.0944532354528
0.0939576737768
0.0939944255535
0.0937173241872
0.0937866567611
0.0948322902908
0.0946909612703
0.0946866763671
0.0943306486806
0.0943710348431
0.0939043587372
0.0939637598422
0.0934927546582
0.0935505804733
0.0931504601658
0.0931977852584
0.0929129333514
0.0929481387477
0.0928013830976
0.0928252471416
0.0946919137306
0.0946116252143
0.0946144621387
0.0942831551862
0.0943198194051
0.0938633998217
0.0939185914603
0.0934532095961
0.0935066772238
0.0931104522483
0.0931540920338
0.0928720255142
0.0929047296453
0.0927595715936
0.0927824157106
0.0946837120334
0.0946110897907
0.0946385053428
0.0943286640392
0.0943509185627
0.0939078278413
0.0939509171178
0.0934996300067
0.0935421656361
0.0931580709195
0.0931928000984
0.0929193140208
0.09294632809
0.0928054748807
0.0928266045585
0.0943308136053
0.0942827681044
0.0943310197658
0.0940818895719
0.0940991734418
0.0936899077838
0.0937194651213
0.0932904202111
0.0933167192318
0.0929491405418
0.0929695363472
0.0927078946031
0.0927251212812
0.0925908487723
0.0926082077216
0.0943623742807
0.0943107905388
0.0943445995322
0.0940904816983
0.0940971560803
0.0936903753664
0.0937108750873
0.093287617935
0.0933055017001
0.0929441702801
0.0929579613169
0.0927008780071
0.0927143021789
0.0925818161004
0.0925989839032
0.0939011943736
0.0938597723762
0.0939068055213
0.0936865590384
0.0936962036406
0.0933095747333
0.0933257402191
0.0929148926012
0.0929245589906
0.0925724497961
0.0925773986296
0.092327109366
0.0923338580548
0.0922057619642
0.0922196715409
0.0939474489965
0.0939019185039
0.0939368034029
0.0937026631015
0.093703012232
0.0933113259247
0.0933213132297
0.0929082894831
0.0929128802442
0.092559997016
0.0925615330321
0.0923115559509
0.0923171740837
0.0921888775023
0.0922040252738
0.0934838254736
0.0934438104996
0.0934929136702
0.0932811651491
0.0932881188521
0.092908840537
0.0929174820568
0.0925120246248
0.0925122737031
0.0921655542087
0.0921619179339
0.0919165310293
0.0919171375204
0.0917921604411
0.0918039661634
0.0935253267056
0.0934810731359
0.0935191202462
0.0932907412956
0.0932885581113
0.0929005723301
0.0929037047513
0.0924936662404
0.09249109496
0.0921425897723
0.0921372829737
0.0918913901909
0.0918915357255
0.0917665030342
0.0917791896211
0.0931336394496
0.093093145146
0.0931435014179
0.092931803323
0.0929368402644
0.0925580175575
0.0925609838334
0.0921570202118
0.0921520896307
0.0918073754147
0.0917978164408
0.0915542775929
0.0915500620037
0.0914270161878
0.0914365878031
0.0931629096664
0.0931189016247
0.0931601275604
0.0929339334985
0.0929311343388
0.0925434762544
0.0925420205266
0.0921338273109
0.0921265331214
0.0917802859222
0.0917691465413
0.0915265846164
0.0915212184826
0.091400353998
0.0914093587764
0.0928866369189
0.0928452270385
0.0928952334767
0.0926807888976
0.0926834251188
0.0923024941997
0.0923017666696
0.0918976725102
0.0918885720467
0.0915439215077
0.0915297380519
0.0912874619469
0.0912790531776
0.0911583896469
0.0911651542492
0.0929035804932
0.0928598776498
0.0929039022594
0.0926797644953
0.0926772825679
0.0922902675641
0.0922866066853
0.0918796708646
0.0918687159056
0.0915242422625
0.0915082814535
0.0912695127042
0.0912588919314
0.091143341686
0.0911479604142
0.0927647827511
0.0927224594922
0.0927709591247
0.0925531523273
0.0925532832538
0.0921700412116
0.0921668602728
0.0917618944371
0.0917496818851
0.0914054422607
0.0913877251662
0.0911477095862
0.0911353649315
0.0910187898816
0.0910218433592
0.0927715170415
0.092728414247
0.0927748812068
0.0925537117451
0.0925520999824
0.0921667872899
0.0921626591703
0.0917569422278
0.0917441757937
0.0914008744084
0.0913825518729
0.0911455620574
0.0911326638725
0.0910201268802
0.0910232941231
0.0949319068801
0.0947969030745
0.0947748557964
0.0944103247668
0.0944116106358
0.0939296035902
0.0939467456386
0.0934569907302
0.0934807495828
0.0930605337358
0.0930871513165
0.0927826868412
0.0928124564868
0.0926482825344
0.0926822450142
0.0948004423825
0.0947217251853
0.0947029215403
0.0943561270295
0.0943523079721
0.093878987832
0.0938907676615
0.0934075921182
0.0934261711442
0.0930115282655
0.0930338039971
0.0927335898573
0.0927602783693
0.0925986346182
0.0926310463186
0.0947688545926
0.0946945062636
0.0946872494235
0.0943498055204
0.0943219107473
0.0938555375508
0.0938503305432
0.0933753803128
0.0933806119148
0.0929726185435
0.0929857773725
0.0926889964329
0.0927118617943
0.0925499485411
0.0925843008639
0.0944163161979
0.0943592883993
0.0943612537981
0.0940573694908
0.0940171902448
0.0935752977946
0.0935520289295
0.0930984273443
0.0930856117414
0.0926962444106
0.0926946958235
0.0924117119478
0.0924247954522
0.0922701633149
0.0923006629844
0.0943965339171
0.0943344328664
0.0943125264837
0.093992605603
0.0939328885541
0.0934832796039
0.0934469356477
0.0929865601419
0.092966002227
0.0925673690727
0.0925641493466
0.0922685695376
0.092287851387
0.0921185676476
0.0921633418258
0.0939354847356
0.0938815982077
0.0938686043795
0.0935738488123
0.0935147492075
0.0930824689317
0.0930402512141
0.0925939123977
0.0925652878974
0.0921803016704
0.0921683240122
0.0918857320523
0.0918961475556
0.0917367910943
0.091773778241
0.0939206761445
0.0938609247937
0.0938308184324
0.0935108967637
0.0934376981252
0.0929852475952
0.0929354550274
0.0924680975825
0.0924396497845
0.0920283270634
0.0920261549371
0.0917115358512
0.09174311948
0.0915502234955
0.0916186737301
0.0934596586793
0.0934059701082
0.0933877159073
0.0930909301392
0.0930236595686
0.092586314551
0.0925374026438
0.0920851951281
0.0920529472315
0.0916593644162
0.0916488667061
0.0913543490571
0.0913729827702
0.0911982547486
0.0912509825744
0.0934428902922
0.0933832236516
0.0933508387868
0.0930260581865
0.0929482574096
0.0924836409333
0.0924322334543
0.0919459914423
0.0919221992815
0.0914831132519
0.0914961154236
0.091145073585
0.0912046976237
0.090970779832
0.0910787141204
0.0930566476193
0.0930020578896
0.0929811934422
0.0926780471875
0.0926074449316
0.092158549892
0.0921100207576
0.0916428785936
0.0916153345542
0.0912031409412
0.0912036961788
0.0908864263909
0.0909227078794
0.090722271476
0.0907995668121
0.0930378521331
0.0929780607431
0.0929462621
0.0926171334197
0.0925390497729
0.0920606029282
0.0920138501692
0.0915042150319
0.0914928884262
0.0910188045801
0.0910567325754
0.0906570241531
0.0907563165228
0.090466937072
0.0906270961994
0.0927690465436
0.0927130801056
0.0926901425216
0.092378662187
0.0923066093934
0.0918440922916
0.0917989163931
0.0913123473697
0.0912946625642
0.0908565816088
0.0908737188158
0.0905239132137
0.0905856292887
0.0903485461286
0.0904605617655
0.092753181403
0.0926935941309
0.0926638050069
0.0923330055743
0.0922569279226
0.0917685677535
0.09172812002
0.0912003526249
0.091202526948
0.0906987921008
0.0907608624272
0.090317240034
0.0904560008596
0.0901132442777
0.0903249678762
0.0926224827299
0.0925650870697
0.0925400210646
0.0922203962883
0.0921472572758
0.0916722971373
0.0916307045685
0.0911250568407
0.0911175953612
0.0906504829992
0.090686832391
0.0902981337848
0.0903907710799
0.090108125718
0.0902626672508
0.0926151263165
0.0925562882681
0.0925289625118
0.0922006852658
0.0921267444668
0.0916380034738
0.0916004190882
0.0910707182528
0.0910769499233
0.0905691100052
0.0906369940593
0.0901870285868
0.0903355859346
0.0899816837705
0.090210313073
0.0892833920923
0.0892308689959
0.0892198401408
0.0890711531012
0.0890718135274
0.0888563790289
0.0888646863041
0.0886285145891
0.0886398619686
0.0884260737695
0.0884391074675
0.0882802638384
0.0882959741642
0.0882127789087
0.0882324759522
0.0892322583532
0.0892058496874
0.0891987248355
0.0890604493959
0.0890596576479
0.0888492231315
0.0888556018356
0.0886227803243
0.0886318500462
0.0884206597117
0.0884314822679
0.0882746151231
0.0882886033858
0.0882066964448
0.0882254525226
0.0892154779611
0.08919379204
0.0892026264297
0.0890778426154
0.0890693087042
0.0888652552813
0.0888653480456
0.0886380697468
0.0886413267098
0.0884348464346
0.0884411029543
0.0882876208336
0.0882989768894
0.0882186469738
0.0882371076154
0.0890715433606
0.089060064991
0.0890815397883
0.0889830230137
0.0889715232016
0.0887844374422
0.0887765402816
0.0885622395933
0.0885556122038
0.0883593667413
0.0883558975001
0.0882100305242
0.0882138923585
0.0881384332305
0.0881529768779
0.0890592571292
0.0890465944222
0.0890601817664
0.0889584279522
0.0889390463931
0.0887517157576
0.0887371015759
0.0885228780203
0.0885109166651
0.0883144339691
0.0883077574502
0.0881612549342
0.0881645961067
0.0880877507087
0.0881047817796
0.0888521597193
0.0888444121747
0.088864391534
0.0887799106722
0.0887611881022
0.0885865846456
0.0885667707085
0.0883631417437
0.0883423937737
0.0881546085614
0.0881376455549
0.0879981052305
0.0879919550538
0.0879209843433
0.0879310694955
0.0888413058443
0.0888317510953
0.0888452168661
0.0887517823319
0.0887259102955
0.0885450448966
0.0885197873944
0.0883109541488
0.0882864673705
0.0880946771951
0.0880758115194
0.0879339912386
0.0879280365236
0.087855518078
0.0878684103138
0.0886160795019
0.0886097915341
0.0886290849048
0.0885492000687
0.0885245577907
0.0883543954717
0.0883242617917
0.0881232572234
0.0880893690936
0.0879035864394
0.0878731293249
0.0877357932883
0.087719021212
0.0876513346861
0.0876554997046
0.088603969495
0.0885955808014
0.0886086105797
0.0885180352308
0.0884867706299
0.0883079327519
0.0882729966906
0.0880655501841
0.0880279414833
0.0878403799887
0.0878057917827
0.0876729970473
0.0876504662316
0.0875904170277
0.0875898417331
0.088402241644
0.0883963171192
0.0884143676739
0.0883345033523
0.0883039692701
0.0881336437595
0.088093376879
0.0878912936542
0.087844145206
0.0876581359614
0.0876131016809
0.0874770626759
0.0874474154135
0.0873827446567
0.0873794660404
0.0883899512457
0.0883821341295
0.088394928171
0.0883053294519
0.0882691922737
0.0880909938851
0.0880461313848
0.0878407112981
0.0877879720607
0.0876083846815
0.0875525732768
0.0874384617375
0.087390494336
0.0873559730486
0.087331343952
0.0882427881324
0.0882367211057
0.0882531689862
0.0881712628095
0.0881352831238
0.0879626840359
0.0879131844929
0.0877097997865
0.0876495009208
0.0874642025561
0.087404368102
0.0872726489217
0.087227719268
0.0871706665447
0.0871549495403
0.0882338060742
0.0882264677349
0.088239372045
0.0881509158296
0.0881107610835
0.0879338609745
0.0878797490913
0.0876788337245
0.0876094699176
0.0874426583933
0.0873628493336
0.0872768368544
0.087195161058
0.0871989926992
0.0871421056871
0.0881607817444
0.0881543422567
0.0881692063757
0.0880847076727
0.0880447886493
0.0878699725207
0.0878139786532
0.0876107121438
0.0875394183351
0.087360608232
0.0872851062184
0.0871689873499
0.0871013295395
0.0870689377307
0.0870315006135
0.0881585388661
0.0881516931115
0.0881653010897
0.0880786323549
0.0880369937526
0.087861525952
0.0878029180807
0.0876036774211
0.0875255242141
0.0873627924751
0.0872709476417
0.0871930587133
0.0870984136204
0.0871256925136
0.0870634639131
0.0887961840948
0.0887404971805
0.088718637707
0.0885526050263
0.08853223114
0.0882925478646
0.0882785186989
0.0880143957078
0.0880094465983
0.0877657896928
0.0877733097224
0.087584623662
0.0876081909353
0.0874974706852
0.0875391038068
0.0887465055075
0.0887148111227
0.0886952455536
0.0885370082299
0.0885142554616
0.0882795448166
0.0882629139138
0.0880033808512
0.0879955858998
0.0877564987671
0.087761082768
0.0875766297177
0.0875973052741
0.0874898889064
0.0875289251902
0.0887088609893
0.0886811497823
0.0886731435245
0.0885180045141
0.0884838142361
0.0882481646387
0.0882238381841
0.0879612379706
0.0879492139261
0.0877035469542
0.0877086420158
0.0875140686946
0.08754104888
0.0874215735467
0.0874726265015
0.0885635674461
0.0885429262741
0.0885390938712
0.0884015114083
0.088361354572
0.0881413131722
0.0881084341633
0.0878618526236
0.0878402202153
0.0876113239557
0.0876060078985
0.0874277772663
0.087443664024
0.0873372831868
0.0873777648267
0.0885082429144
0.0884847602373
0.0884694606865
0.088315986646