/*--------------------------------*- C++ -*----------------------------------*\
| =========                 |                                                 |
| \\      /  F ield         | OpenFOAM: The Open Source CFD Toolbox           |
|  \\    /   O peration     | Version:  2406                                  |
|   \\  /    A nd           | Website:  www.openfoam.com                      |
|    \\/     M anipulation  |                                                 |
\*---------------------------------------------------------------------------*/
FoamFile
{
    version     2.0;
    format      ascii;
    arch        "LSB;label=32;scalar=64";
    class       surfaceScalarField;
    location    "0.01";
    object      phi;
}
// * * * * * * * * * * * * * * * * * * * * * * * * * * * * * * * * * * * * * //

dimensions      [0 3 -1 0 0 0 0];

oriented        oriented;

internalField   nonuniform List<scalar> 
87363
(
1.94311774706e-06
1.94327086259e-06
0.000884984722591
1.33759667028e-06
1.64507884009e-06
0.000887858220427
1.10119914429e-06
1.02389852699e-06
0.000888083610687
8.92305035788e-07
1.35509056455e-06
0.000887724915224
6.7909071856e-07
1.26658013176e-06
0.000887844412271
5.74224396781e-07
1.31917756908e-06
0.000887656800433
4.37807689527e-07
1.31020289543e-06
0.000887697325483
3.70603078017e-07
1.31219129698e-06
0.000887652791379
2.83196102171e-07
1.31574382515e-06
0.000887642774808
2.32580945968e-07
1.31084130256e-06
0.000887610885504
1.71216166159e-07
1.31506965366e-06
0.00088764407317
1.28184068136e-07
1.31093825752e-06
0.000887603205476
8.00778447133e-08
1.31362181356e-06
0.000887613595956
3.9562894543e-08
1.31153055522e-06
0.00088761076257
1.31241794206e-06
0.000887608643809
1.64495825732e-06
1.3378850236e-06
0.000887858205771
1.52949084972e-06
1.52971614845e-06
0.000889155275851
9.28805758251e-07
1.1370394888e-06
0.000889385322599
7.45560838748e-07
1.28884390036e-06
0.000889147270039
5.27965343465e-07
1.21963618519e-06
0.000889188985092
4.28670512862e-07
1.24785327865e-06
0.000889068397558
3.28315647559e-07
1.23623382774e-06
0.000889072102353
2.68051276074e-07
1.23723684989e-06
0.000889059664427
2.09332379529e-07
1.23842388034e-06
0.000889033817238
1.67008199838e-07
1.23456726355e-06
0.000889016376602
1.25775420169e-07
1.23780258483e-06
0.000889042945419
9.18875041492e-08
1.23422952397e-06
0.000889008375005
5.86272978031e-08
1.23655553616e-06
0.000889016104983
2.82665536704e-08
1.23466188419e-06
0.000889015674619
1.23545981142e-06
0.000889012851632
1.02375260675e-06
1.10162901916e-06
0.000888083615086
1.13677972737e-06
9.29138063794e-07
0.00088938532944
7.83717047066e-07
7.84070853553e-07
0.000889577143331
6.55815771932e-07
8.85667361797e-07
0.000889402189778
4.95880143717e-07
8.52170482535e-07
0.000889425179681
4.07177280256e-07
8.79669930532e-07
0.00088932799814
3.2150663861e-07
8.71916998065e-07
0.000889321099386
2.62106133072e-07
8.76737687832e-07
0.000889317677971
2.08171845212e-07
8.77077887601e-07
0.000889286392174
1.65074796794e-07
8.75923669046e-07
0.000889272852526
1.25798779289e-07
8.78053477579e-07
0.000889296803397
9.12251041781e-08
8.75987991421e-07
0.000889263927065
5.87597681457e-08
8.77641741063e-07
0.000889270490893
2.80934889713e-08
8.76404956799e-07
0.000889270701601
8.76979056334e-07
0.00088926755444
1.35495555372e-06
8.92887797838e-07
0.000887724897352
1.28859370508e-06
7.46017720683e-07
0.000889147260661
8.85315188715e-07
6.56282792079e-07
0.000889402178549
7.07088172845e-07
7.07559803816e-07
0.000889227446481
5.24223716592e-07
6.85590526676e-07
0.00088924722269
4.22831338934e-07
7.04586711821e-07
0.000889147587453
3.2961791998e-07
6.97770200148e-07
0.000889138472059
2.66700700092e-07
7.02484372195e-07
0.000889134948768
2.10478159163e-07
7.01850546089e-07
0.000889102561707
1.66358300228e-07
7.01790342695e-07
0.000889089365003
1.26468955292e-07
7.02935381849e-07
0.000889112785648
9.15756254039e-08
7.01813371793e-07
0.000889080179745
5.89414403043e-08
7.02877696316e-07
0.000889086509932
2.81578017283e-08
7.02121460057e-07
0.000889086845476
7.02496184639e-07
0.000889083634053
1.26643696413e-06
6.79790056125e-07
0.000887844438872
1.21938048295e-06
5.28514208483e-07
0.000889189005664
8.51817406681e-07
4.96434462575e-07
0.000889425189769
6.85124096986e-07
5.24787459518e-07
0.000889247243937
5.11262293362e-07
5.11815447649e-07
0.000889272082336
4.15512679227e-07
5.25107564871e-07
0.000889173006992
3.24808201762e-07
5.20517014491e-07
0.000889165735883
2.64131776717e-07
5.25153827862e-07
0.000889162452383
2.08666325899e-07
5.2449929936e-07
0.000889130594906
1.65402977212e-07
5.25321522195e-07
0.000889117510371
1.25736879098e-07
5.25997574515e-07
0.000889141049298
9.11908025966e-08
5.25615592138e-07
0.000889108522036
5.86638566048e-08
5.26317860703e-07
0.000889114865107
2.80427595315e-08
5.25945283494e-07
0.000889115242306
5.26186965459e-07
0.000889112024742
1.31904570769e-06
5.75066347803e-07
0.000887656789694
1.24760959528e-06
4.293345375e-07
0.000889068394246
8.79319553063e-07
4.07841323551e-07
0.000889327995127
7.04113159261e-07
4.23508732585e-07
0.000889147596988
5.24539045126e-07
4.16175842996e-07
0.000889172991954
4.2449258188e-07
4.25178128855e-07
0.000889071087718
3.30280796746e-07
4.22042490459e-07
0.000889063798118
2.67944281837e-07
4.25738213564e-07
0.000889059530335
2.10860624104e-07
4.25060145492e-07
0.000889027634614
1.67002638243e-07
4.26032864246e-07
0.000889014258439
1.26647739614e-07
4.26369149755e-07
0.000889037761509
9.18573341668e-08
4.26343415841e-07
0.000889005174355
5.90020276117e-08
4.26782356486e-07
0.000889011502492
2.82144849582e-08
4.266350973e-07
0.000889011876042
4.26774261409e-07
0.00088900865266
1.3100638954e-06
4.38732801533e-07
0.000887697381338
1.2359872627e-06
3.29044097696e-07
0.000889072145521
8.71573039352e-07
3.22236712579e-07
0.000889321130768
6.97310611791e-07
3.30365397815e-07
0.000889138517616
5.19970695155e-07
3.25537611604e-07
0.000889165756374
4.21383910664e-07
3.31036363714e-07
0.000889063840361
3.28103205496e-07
3.28827499439e-07
0.000889057607501
2.6668170903e-07
3.31611880833e-07
0.000889053326032
2.099178034e-07
3.31099323365e-07
0.000889021836528
1.66476101594e-07
3.3212755213e-07
0.000889008458805
1.26197599361e-07
3.32339186581e-07
0.000889032086644
9.15941888901e-08
3.32558937421e-07
0.000888999499654
5.87876746603e-08
3.32849037466e-07
0.000889005851506
2.81147554101e-08
3.3285477502e-07
0.000889006231544
3.32929213534e-07
0.000889003004876
1.31206314721e-06
3.71651924762e-07
0.000887652795811
1.23699874352e-06
2.68879377781e-07
0.000889059674761
8.76390634906e-07
2.62933312548e-07
0.000889317689831
7.02011210103e-07
2.67546516264e-07
0.000889134976551
5.24584897365e-07
2.64958839281e-07
0.000889162450505
4.25047919595e-07
2.68802053079e-07
0.000889059549496
3.3085137175e-07
2.6750843127e-07
0.00088905329382
2.68730109997e-07
2.69598361438e-07
0.000889048580183
2.11264230139e-07
2.69266039767e-07
0.000889017077361
1.67454547597e-07
2.70177554458e-07
0.000889003537867
1.26781439126e-07
2.70297811603e-07
0.000889027159855
9.20063724468e-08
2.70588817084e-07
0.000888994523342
5.89997391152e-08
2.70763622799e-07
0.000889000870349
2.82198375706e-08
2.70841876329e-07
0.000889001237811
2.70867995327e-07
0.000888998006771
1.31560717102e-06
2.84292575919e-07
0.000887642863852
1.23818082188e-06
2.10196893681e-07
0.000889033887257
8.76739473388e-07
2.09038816317e-07
0.000889286447757
7.01398785617e-07
2.11364091968e-07
0.000889102634949
5.23962605127e-07
2.09533783754e-07
0.000889130639451
4.24408836898e-07
2.11758971858e-07
0.000889027708654
3.303836323e-07
2.10784902827e-07
0.000889021860533
2.68442508859e-07
2.12172075932e-07
0.000889017145606
2.11061584191e-07
2.11924822827e-07
0.000888985833932
1.67381709566e-07
2.12665466796e-07
0.000888972303739
1.26721938121e-07
2.12738330031e-07
0.000888995997411
9.19997708431e-08
2.13047579684e-07
0.000888963375142
5.89767408704e-08
2.13157762471e-07
0.00088896974053
2.82016390437e-08
2.13273880186e-07
0.000888970121364
2.13273894319e-07
0.000888966884258
1.31071705916e-06
2.33774575645e-07
0.000887610912608
1.23433481308e-06
1.67950803383e-07
0.000889016406747
8.75582736e-07
1.66017704645e-07
0.000889272885091
7.0132182054e-07
1.6731986833e-07
0.000889089416969
5.24757070202e-07
1.6634917324e-07
0.000889117527569
4.25342966275e-07
1.67981264255e-07
0.000889014303609
3.31367906445e-07
1.6742880104e-07
0.000889008442954
2.69303880676e-07
1.68448931668e-07
0.000889003565357
2.11752914573e-07
1.68338961601e-07
0.000888972248604
1.67939443188e-07
1.68946796783e-07
0.000888958643901
1.27112878396e-07
1.69007158881e-07
0.000888982335873
9.22887245084e-08
1.69297488431e-07
0.000888949685958
5.91426438628e-08
1.69365302584e-07
0.000888956050152
2.82811998946e-08
1.6949048708e-07
0.000888956423073
1.69472477546e-07
0.000888953184171
1.31493724695e-06
1.72419292827e-07
0.000887644196095
1.23756736296e-06
1.26723485842e-07
0.0008890430428
8.77725600408e-07
1.26752467042e-07
0.000889296885292
7.02494815251e-07
1.2743991734e-07
0.000889112888957
5.25473999289e-07
1.26695257786e-07
0.000889141120131
4.25728886225e-07
1.27635025403e-07
0.000889037869541
3.31636192742e-07
1.27162531831e-07
0.000889032137144
2.69481733945e-07
1.27781902699e-07
0.000889027266861
2.11883071706e-07
1.27691240224e-07
0.000888996024543
1.68049372896e-07
1.28124797527e-07
0.000888982433836
1.27186239109e-07
1.28156325055e-07
0.00088900615928
9.23459493123e-08
1.28391071645e-07
0.000888973524792
5.91658826771e-08
1.28428286823e-07
0.000888979895303
2.8278619467e-08
1.28539269379e-07
0.000888980283403
1.28515068887e-07
0.000888977033872
1.31081911476e-06
1.29450859231e-07
0.000887603260971
1.23400540605e-06
9.28865899353e-08
0.000889008428989
8.75657185356e-07
9.22284481289e-08
0.000889263984118
7.01354921003e-07
9.25942351501e-08
0.000889080259757
5.25062359861e-07
9.22027018216e-08
0.000889108563307
4.25662469787e-07
9.28961608652e-08
0.000889005250535
3.31809423857e-07
9.26203983614e-08
0.000888999506949
2.69720037597e-07
9.30644607503e-08
0.000888994584988
2.12140317629e-07
9.30405314684e-08
0.000888963342171
1.68287563176e-07
9.3366941141e-08
0.000888949722328
1.27376772803e-07
9.33980372307e-08
0.000888973447166
9.24951293809e-08
9.35849432483e-08
0.000888940799431
5.92577716992e-08
9.36070122227e-08
0.000888947170185
2.83226162961e-08
9.36994800274e-08
0.000888947553118
9.36736725617e-08
0.000888944303853
1.31349455964e-06
8.1317846389e-08
0.000887613750017
1.23632969096e-06
5.9602731729e-08
0.000889016227259
8.77326158182e-07
5.97454020714e-08
0.000889270598364
7.02450847939e-07
5.99394134956e-08
0.000889086641852
5.25810170873e-07
5.96595953091e-08
0.000889114962122
4.26157523067e-07
6.00177450973e-08
0.000889011642755
3.32162873966e-07
5.97975744473e-08
0.000889005929154
2.69960672384e-07
6.00311510803e-08
0.000889001013821
2.12315575735e-07
6.00010183341e-08
0.000888969796258
1.68413941978e-07
6.01914919471e-08
0.000888956188703
1.27463331176e-07
6.02019738996e-08
0.000888979924902
9.25512848285e-08
6.0317714133e-08
0.000888947290832
5.928402264e-08
6.03257559684e-08
0.00088895366004
2.83209724947e-08
6.03846309298e-08
0.000888954056064
6.03647149234e-08
0.000888950795082
1.31141733515e-06
4.08292739763e-08
0.000887610849431
1.23444832134e-06
2.9263200604e-08
0.000889015753785
8.76087936324e-07
2.90995183692e-08
0.000889270784689
7.01678861364e-07
2.91727330915e-08
0.000889086954117
5.25410459505e-07
2.90624360847e-08
0.000889115310609
4.25972962609e-07
2.92489763431e-08
0.000889011984591
3.32125250365e-07
2.91558173662e-08
0.000889006267784
2.69990359471e-07
2.92747342795e-08
0.000889001336332
2.12383521871e-07
2.92664978279e-08
0.000888970119638
1.6849182594e-07
2.93605198931e-08
0.000888956500917
1.2753437469e-07
2.93654306111e-08
0.000888980238928
9.2611211088e-08
2.94214196598e-08
0.000888947597638
5.932341344e-08
2.94223496216e-08
0.000888953969372
2.83414688652e-08
2.9449893001e-08
0.000888954361503
2.94367616663e-08
0.000888951103212
1.31229606698e-06
0.000887608823245
1.23524420347e-06
0.000889012993572
8.76676535696e-07
0.000889267684215
7.02084627545e-07
0.000889083789582
5.25696677563e-07
0.000889112145219
4.26167922699e-07
0.000889008818714
3.32262122567e-07
0.000889003107781
2.70083056197e-07
0.000888998178768
2.1244873995e-07
0.000888966967442
1.68534962415e-07
0.000888953354189
1.27561294843e-07
0.000888977093026
9.26242051458e-08
0.000888944458162
5.9325355156e-08
0.000888950825938
2.83320975895e-08
0.000888951224137
0.000888947957776
5.52262300576e-07
5.52425438905e-07
0.000883880035179
5.21020175987e-07
7.35973028601e-07
0.000887153490271
5.91146968839e-07
6.67289861513e-07
0.0008873461947
5.17124004512e-07
7.3285916431e-07
0.000887066079685
4.74226300784e-07
7.20911133483e-07
0.000887166399496
4.13624601462e-07
7.24527759353e-07
0.000886992875019
3.55032895519e-07
7.263736878e-07
0.000887029544136
3.04816553453e-07
7.21018105348e-07
0.000886981990241
2.50038203991e-07
7.25315438286e-07
0.000886972238334
2.06513615193e-07
7.19666972551e-07
0.000886934743724
1.58414852874e-07
7.23423680794e-07
0.000886968748843
1.18499675984e-07
7.1945020745e-07
0.000886923671025
7.57080114789e-08
7.21797806236e-07
0.000886934590382
3.69832626206e-08
7.19830395647e-07
0.000886929657477
7.20615747415e-07
0.000886927653448
7.35810177483e-07
5.21348497584e-07
0.000887153473282
6.9060284821e-07
6.90932513515e-07
0.000889245524704
6.31176386563e-07
6.46620852038e-07
0.000889465419031
5.53956770154e-07
6.99509357528e-07
0.000889257840411
4.84007495887e-07
6.85920263702e-07
0.000889293926175
4.16668201324e-07
6.95467619078e-07
0.000889164797917
3.55048402936e-07
6.94411672357e-07
0.000889165685073
3.00252868627e-07
6.92947609645e-07
0.00088914253135
2.47816947698e-07
6.96358247422e-07
0.000889115211227
2.01575418053e-07
6.92311718113e-07
0.000889089974248
1.56347151467e-07
6.95913449709e-07
0.000889115684761
1.15246054259e-07
6.92543287534e-07
0.000889076383848
7.45750039187e-08
6.94964667263e-07
0.000889083609979
3.59062309014e-08
6.93174939275e-07
0.00088908099964
6.94002440693e-07
0.000889077965051
6.67095154068e-07
5.91650150717e-07
0.00088734621895
6.46243924775e-07
6.31670058163e-07
0.000889465444092
6.13570215702e-07
6.14087559336e-07
0.00088964235125
5.47861709685e-07
6.57723317362e-07
0.000889509685188
4.80171355685e-07
6.51705175323e-07
0.000889527085966
4.1396824743e-07
6.65551854935e-07
0.000889424117836
3.53488904149e-07
6.65015313058e-07
0.000889410975897
2.97664499757e-07
6.67232184975e-07
0.000889399218596
2.46746022432e-07
6.69688275979e-07
0.000889363981407
1.99548577808e-07
6.67871881306e-07
0.00088934449058
1.55545626695e-07
6.7056669132e-07
0.000889366153865
1.13946574667e-07
6.68447281519e-07
0.000889329622866
7.41413569317e-08
6.70305020979e-07
0.000889334956481
3.54759577699e-08
6.69076660108e-07
0.000889333465996
6.69706188123e-07
0.000889329897021
7.32684241966e-07
5.17804533104e-07
0.000887066059398
6.99152541258e-07
5.54624764722e-07
0.000889257838619
6.5721545122e-07
5.48532601982e-07
0.000889509671468
5.74602786994e-07
5.75270534356e-07
0.000889392512724
4.95688236605e-07
5.70771891903e-07
0.000889407071288
4.22934025508e-07
5.81432737272e-07
0.000889304461524
3.58092749151e-07
5.80353843237e-07
0.000889287975536
3.0022196037e-07
5.82918858611e-07
0.000889277133603
2.47929730351e-07
5.84147582911e-07
0.000889240395341
2.00100382944e-07
5.83484782285e-07
0.000889221582149
1.55737701795e-07
5.85235794829e-07
0.000889242479913
1.1397252763e-07
5.83978636772e-07
0.000889206414237
7.41237500469e-08
5.85269699416e-07
0.000889211394688
3.54457536254e-08
5.84480615939e-07
0.000889210120165
5.84912672236e-07
0.000889206450611
7.20728501326e-07
4.75046051228e-07
0.000887166469522
6.85557859285e-07
4.84812901587e-07
0.00088929398913
6.51194962426e-07
4.80967781012e-07
0.000889527118343
5.70106154916e-07
4.96487032458e-07
0.000889407117017
4.92882013681e-07
4.93674756825e-07
0.000889426404349
4.21253207897e-07
5.02034444724e-07
0.00088932403481
3.57109052928e-07
5.01240212466e-07
0.000889308994376
2.99969916045e-07
5.04250859405e-07
0.00088929826022
2.47772692576e-07
5.05056838426e-07
0.000889261883568
2.00237068917e-07
5.05361609578e-07
0.00088924316985
1.55833241657e-07
5.06584607111e-07
0.000889264104983
1.14130975094e-07
5.06069346375e-07
0.00088922813425
7.41975624014e-08
5.06980659424e-07
0.000889233088203
3.54858063887e-08
5.06563153844e-07
0.000889231872156
5.068517e-07
0.000889228180597
7.24361893766e-07
4.1460590919e-07
0.000886992868608
6.95122015294e-07
4.1763081194e-07
0.000889164817165
6.65047414819e-07
4.14910639773e-07
0.000889424127709
5.80762504762e-07
4.23881884396e-07
0.000889304487798
5.01229466047e-07
4.22191913472e-07
0.00088932400856
4.27344950293e-07
4.28303023259e-07
0.000889218704359
3.61066689263e-07
4.27578822705e-07
0.000889203738469
3.02668103183e-07
4.3022372778e-07
0.000889191956749
2.49278180281e-07
4.30621087507e-07
0.000889155460977
2.01217859791e-07
4.3127978696e-07
0.00088913640126
1.5627591914e-07
4.32076245331e-07
0.000889157212474
1.14415290177e-07
4.31969060306e-07
0.000889121135916
7.42940160988e-08
4.32584020401e-07
0.000889126021039
3.55364800179e-08
4.32393121356e-07
0.000889124804235
4.32569625472e-07
0.000889121096409
7.26198197934e-07
3.56115575685e-07
0.000887029674131
6.94057639175e-07
3.56114030513e-07
0.000889165803795
6.64511028514e-07
3.54529954308e-07
0.000889411058891
5.79694467063e-07
3.59141970983e-07
0.000889288074834
5.00453515661e-07
3.58148431719e-07
0.00088930904152
4.26643441003e-07
3.62129887868e-07
0.000889203824272
3.60631547669e-07
3.61669256396e-07
0.000889189529659
3.02549363963e-07
3.63874137958e-07
0.000889177758501
2.49242958964e-07
3.64119548954e-07
0.000889141645159
2.01391652865e-07
3.64932417622e-07
0.000889122658155
1.56430359706e-07
3.65478648031e-07
0.000889143646191
1.14615304191e-07
3.65625238199e-07
0.000889107659169
7.44005608242e-08
3.66051605562e-07
0.000889112599288
3.55853803459e-08
3.66025905567e-07
0.000889111414556
3.66132819432e-07
0.000889107695959
7.20859502351e-07
3.060370888e-07
0.000886982015443
6.92609214893e-07
3.01450534699e-07
0.000889142589464
6.66733026163e-07
2.98829815749e-07
0.000889399266973
5.82250828916e-07
3.01397316199e-07
0.000889277204135
5.03445174204e-07
3.01136238368e-07
0.00088929826906
4.29260208254e-07
3.03861727347e-07
0.000889192003321
3.62802865834e-07
3.03718988855e-07
0.000889177702125
3.04294145977e-07
3.05502609738e-07
0.000889165461123
2.50514711844e-07
3.05681334675e-07
0.000889129295691
2.02390280259e-07
3.0647212209e-07
0.000889110123259
1.57096678281e-07
3.06848192231e-07
0.000889131084557
1.1510130681e-07
3.07106379459e-07
0.000889095038194
7.466711827e-08
3.0739778444e-07
0.000889099958964
3.57107223368e-08
3.07460977469e-07
0.000889098759731
3.07515466639e-07
0.000889095030183
7.25147283605e-07
2.51317556344e-07
0.000886972436737
6.9601472654e-07
2.49076166291e-07
0.000889115395087
6.69197281154e-07
2.47975825294e-07
0.000889364119996
5.83500189515e-07
2.49171172478e-07
0.000889240558907
5.0428227777e-07
2.4900621479e-07
0.000889261988086
4.29694924265e-07
2.50539260827e-07
0.000889155619165
3.63089502582e-07
2.50482372175e-07
0.000889141703259
3.04512863603e-07
2.51793531989e-07
0.000889129432005
2.50660955737e-07
2.51902524645e-07
0.000889093465319
2.02539117063e-07
2.52591970807e-07
0.000889074306378
1.57182927672e-07
2.52852474191e-07
0.000889095349942
1.15181055157e-07
2.53147867363e-07
0.000889059336125
7.46924414078e-08
2.53348407791e-07
0.000889064279097
3.57090004526e-08
2.5345649009e-07
0.000889063109856
2.53479047505e-07
0.000889059366984
7.19516937225e-07
2.0789793103e-07
0.00088693481592
6.91982433407e-07
2.02932904006e-07
0.000889090085402
6.6738211764e-07
2.00872221236e-07
0.000889344589801
5.82825103905e-07
2.01435228879e-07
0.000889221710638
5.04564256595e-07
2.01567664626e-07
0.000889243227656
4.30321326453e-07
2.02576229192e-07
0.000889136510251
3.63864530106e-07
2.02735417192e-07
0.000889122647379
3.05260528186e-07
2.03774400273e-07
0.000889110189156
2.51307264783e-07
2.03894213896e-07
0.000889074210828
2.03091161067e-07
2.04489633849e-07
0.000889054962967
1.57591330209e-07
2.04686438952e-07
0.000889076002335
1.15490397318e-07
2.04977721506e-07
0.000889039957604
7.48737096399e-08
2.05116814667e-07
0.000889044898976
3.57918838984e-08
2.05238993655e-07
0.000889043722921
2.05239739774e-07
0.000889039976855
7.2326402433e-07
1.59813422204e-07
0.000886969017193
6.95579986701e-07
1.57723304048e-07
0.000889115937311
6.70089410315e-07
1.56893377619e-07
0.00088936635549
5.84604380651e-07
1.57096555868e-07
0.000889242713361
5.0582831579e-07
1.57191441755e-07
0.000889264273097
4.3116717338e-07
1.57658826339e-07
0.000889157448754
3.64464854472e-07
1.57805183866e-07
0.000889143770355
3.05690229995e-07
1.58507779098e-07
0.000889131308754
2.51618005164e-07
1.58573333388e-07
0.000889095418275
2.03329382206e-07
1.59019938302e-07
0.000889076192754
1.5775197996e-07
1.59149665987e-07
0.000889097274022
1.15603959404e-07
1.59392321074e-07
0.000889061258748
7.49270539801e-08
1.59482887616e-07
0.000889066206644
3.57987606364e-08
1.59593031473e-07
0.000889065058147
1.59582923684e-07
0.000889061292184
7.19310125767e-07
1.19963081728e-07
0.000886923801788
6.92225762918e-07
1.16680249548e-07
0.000889076557265
6.67972247628e-07
1.15349768131e-07
0.000889329782008
5.8333541417e-07
1.15384704559e-07
0.000889206609131
5.05290543766e-07
1.155481561e-07
0.000889228252132
4.31027958471e-07
1.15854742632e-07
0.000889121317858
3.64573984216e-07
1.16057218179e-07
0.000889107709534
3.05906392303e-07
1.16576066284e-07
0.000889095184922
2.51871856918e-07
1.16648500389e-07
0.000889059302145
2.0357986953e-07
1.16991433565e-07
0.000889040043394
1.57959611774e-07
1.17089325891e-07
0.000889061128303
1.15769301633e-07
1.17284000405e-07
0.000889025098566
7.50288250956e-08
1.17344532497e-07
0.000889030049493
3.58439105491e-08
1.17435461466e-07
0.000889028896058
1.17420605848e-07
0.000889025130777
7.21648451889e-07
7.71425238108e-08
0.000886934922715
6.94644405768e-07
7.59854561455e-08
0.000889083926939
6.69845495694e-07
7.55277892235e-08
0.000889335220003
5.84659603158e-07
7.55177251535e-08
0.0008892116954
5.06248901808e-07
7.56011998747e-08
0.000889233320437
4.3169979241e-07
7.57147743854e-08
0.000889126332479
3.65062708554e-07
7.58318164301e-08
0.000889112792275
3.06261209269e-07
7.61235525673e-08
0.000889100268451
2.52132201664e-07
7.61529005123e-08
0.000889064421455
2.03770796214e-07
7.63588121668e-08
0.000889045183284
1.58090242794e-07
7.64109915588e-08
0.000889066284305
1.15854658248e-07
7.65328140791e-08
0.000889030278083
7.50690776262e-08
7.65649200363e-08
0.000889035225683
3.58453691645e-08
7.66221639664e-08
0.0008890340935
7.66086484527e-08
0.000889030307675
7.19701592342e-07
3.84387869669e-08
0.000886929852155
6.92872413315e-07
3.73317280518e-08
0.000889081237522
6.68621641898e-07
3.68763562715e-08
0.000889333687639
5.83861686025e-07
3.68503060175e-08
0.000889210382163
5.05812247274e-07
3.69061748394e-08
0.000889232055723
4.31480900468e-07
3.69692012788e-08
0.000889125062151
3.65004384165e-07
3.70397508373e-08
0.000889111536996
3.06288414339e-07
3.71835200516e-08
0.000889098992946
2.52205271784e-07
3.72009135298e-08
0.000889063155347
2.03859814634e-07
3.73002674995e-08
0.00088904390546
1.58173168434e-07
3.73236877539e-08
0.000889065013377
1.15924818434e-07
3.73799605749e-08
0.000889028999305
7.51143745563e-08
3.73917214016e-08
0.000889033953447
3.58662821207e-08
3.74156566267e-08
0.000889032816515
3.74054469633e-08
0.000889029035838
7.20477601563e-07
0.000886928036959
6.93697227058e-07
0.000889078334868
6.69266637659e-07
0.000889330214705
5.84327153348e-07
0.000889206807846
5.06148099551e-07
0.00088922847056
4.31715689785e-07
0.000889121470642
3.6517535658e-07
0.000889107952917
3.06409759408e-07
0.000889095410066
2.52291394805e-07
0.000889059580952
2.03918305866e-07
0.000889040339923
1.58209137323e-07
0.000889061448873
1.15942781827e-07
0.000889025444545
7.51166057539e-08
0.000889030391525
3.58546994012e-08
0.000889029263137
0.000889025467834
4.75565379717e-07
4.75716203138e-07
0.000882928753867
4.82165962772e-07
5.97880947158e-07
0.000886549009429
5.70715842157e-07
5.72106857723e-07
0.000886685538574
5.07541793545e-07
6.18109439375e-07
0.000886511144901
4.78755807584e-07
6.11077539391e-07
0.000886584108543
4.18540080576e-07
6.19363405204e-07
0.000886433727934
3.63338329994e-07
6.22465332881e-07
0.000886462281134
3.1187228606e-07
6.20004532845e-07
0.000886413452321
2.56963899069e-07
6.24918555653e-07
0.000886402228721
2.12012461712e-07
6.20735108081e-07
0.000886358960597
1.62925520368e-07
6.24816308479e-07
0.000886393020008
1.21717673429e-07
6.21561102366e-07
0.000886343318291
7.7832689205e-08
6.24059893733e-07
0.000886354415982
3.79538899231e-08
6.2239017897e-07
0.000886347146596
6.23214084043e-07
0.000886345141181
5.97736920165e-07
4.82468829558e-07
0.000886548984424
5.47725910611e-07
5.48032859166e-07
0.000889345384756
5.70838666292e-07
5.31950004712e-07
0.000889482464029
5.1891528803e-07
5.60214087316e-07
0.00088936766003
4.74963668841e-07
5.54901647593e-07
0.000889394054562
4.15695928382e-07
5.61867677626e-07
0.000889281562245
3.60524432115e-07
5.64226185384e-07
0.000889279096557
3.06845915992e-07
5.62258480638e-07
0.000889253956741
2.55176790121e-07
5.66834729211e-07
0.000889224964984
2.08071821056e-07
5.6282179744e-07
0.000889194993315
1.61898144627e-07
5.66944511463e-07
0.000889219731007
1.19409064704e-07
5.63636214441e-07
0.000889176798573
7.73585540806e-08
5.66262582836e-07
0.000889183458542
3.71971341641e-08
5.64520500132e-07
0.00088917903147
5.65384427809e-07
0.000889175760257
5.7192150464e-07
5.71183063961e-07
0.000886685583825
5.31580059081e-07
5.71310026087e-07
0.000889482509277
5.41054713177e-07
5.41565028937e-07
0.000889623262417
4.95686483944e-07
5.6088564823e-07
0.000889554382662
4.54480200338e-07
5.5805110136e-07
0.000889565143582
3.99897354748e-07
5.66737682476e-07
0.000889473831444
3.4915905339e-07
5.68632585302e-07
0.000889457308549
2.97303978551e-07
5.69179257742e-07
0.000889444153629
2.49016325102e-07
5.725120404e-07
0.000889406592471
2.02482291867e-07
5.70430089109e-07
0.000889383417028
1.58662461893e-07
5.73520174034e-07
0.000889403398725
1.16489668581e-07
5.71381833791e-07
0.000889364050719
7.59497965181e-08
5.73382893616e-07
0.000889368376708
3.6283440024e-08
5.72186930633e-07
0.000889365466581
5.7282450377e-07
0.000889361524972
6.1794313472e-07
5.08186580458e-07
0.000886511113361
5.5985844967e-07
5.19573408924e-07
0.000889367660821
5.60373197891e-07
4.96363329256e-07
0.000889554359229
5.08237947729e-07
5.08930390111e-07
0.000889496603986
4.61689182324e-07
5.05595362751e-07
0.000889506076518
4.04371044217e-07
5.13020646043e-07
0.000889415497408
3.5125475758e-07
5.13511228917e-07
0.000889396213872
2.98450518278e-07
5.15042058695e-07
0.000889384075722
2.49458615778e-07
5.16998989174e-07
0.000889344900962
2.02638649248e-07
5.16179441874e-07
0.000889322653417
1.58646140606e-07
5.18266167995e-07
0.000889341727068
1.16406072332e-07
5.17042851899e-07
0.000889302993914
7.58724386524e-08
5.18448835038e-07
0.000889306862995
3.62240108121e-08
5.17712986603e-07
0.000889304243145
5.18132731909e-07
0.000889300165217
6.1090099549e-07
4.79527564383e-07
0.000886584228155
5.54544534386e-07
4.75755776189e-07
0.000889394164117
5.57548622614e-07
4.55281661618e-07
0.000889565196718
5.04925220846e-07
4.62516573081e-07
0.000889506154966
4.59302397011e-07
4.6009590391e-07
0.000889517527334
4.02751383969e-07
4.66528133897e-07
0.000889427079022
3.50064013707e-07
4.6670671054e-07
0.00088940848694
2.97851033452e-07
4.68984098092e-07
0.000889396531825
2.49001991091e-07
4.70244788385e-07
0.000889357487463
2.02483955623e-07
4.70407420971e-07
0.000889335460544
1.58514028953e-07
4.71852703898e-07
0.000889354488996
1.16387923728e-07
4.71373874813e-07
0.00088931592994
7.58373189747e-08
4.72360795916e-07
0.000889319727442
3.62040581011e-08
4.72011877791e-07
0.00088931720711
4.72270294869e-07
0.000889313081516
6.19201200719e-07
4.19481163566e-07
0.000886433714416
5.61516968343e-07
4.16659990483e-07
0.000889281598062
5.6622209043e-07
4.00861544336e-07
0.000889473843484
5.12316744891e-07
4.05369967454e-07
0.000889415540465
4.65685241919e-07
4.03708729996e-07
0.000889427027926
4.07526276756e-07
4.08548962912e-07
0.000889334843176
3.5340614979e-07
4.08585925805e-07
0.000889315980048
3.00397824062e-07
4.10698835592e-07
0.000889303250996
2.50651360193e-07
4.11425770028e-07
0.000889264027105
2.03757936581e-07
4.11932938931e-07
0.000889241769796
1.59289375845e-07
4.12858198344e-07
0.000889260676153
1.16953092674e-07
4.12759679374e-07
0.000889222086994
7.61213106483e-08
4.1340212361e-07
0.00088922581208
3.63422251832e-08
4.13290484621e-07
0.000889223305291
4.13416409948e-07
0.000889219150873
6.22295455785e-07
3.64364456167e-07
0.000886462495979
5.63881281223e-07
3.61580534803e-07
0.000889279298286
5.68145600082e-07
3.50217801327e-07
0.00088945743908
5.12856736965e-07
3.52352733241e-07
0.000889396381632
4.65931770387e-07
3.51113606718e-07
0.000889408562289
4.07642639755e-07
3.54528707595e-07
0.000889316134326
3.53443912873e-07
3.54475538422e-07
0.000889297839435
3.00503854764e-07
3.56336179355e-07
0.000889285061868
2.50685641435e-07
3.56799678404e-07
0.000889246090103
2.03869923306e-07
3.57521629378e-07
0.000889223885804
1.59340774243e-07
3.58154717022e-07
0.000889242879423
1.17039309335e-07
3.5834152535e-07
0.000889204379371
7.61538168395e-08
3.58775672717e-07
0.000889208111799
3.6341716015e-08
3.58841210886e-07
0.000889205676488
3.58881705747e-07
0.000889201485372
6.19847815285e-07
3.1305013651e-07
0.000886413482534
5.619102703e-07
3.08052008226e-07
0.000889254056378
5.68663794223e-07
2.98507221948e-07
0.000889444224778
5.14331993525e-07
2.99698077491e-07
0.00088938419128
4.6813329227e-07
2.99050414646e-07
0.000889396531621
4.09657428073e-07
3.01680903301e-07
0.000889303327649
3.5519542598e-07
3.0169663094e-07
0.000889284943687
3.01989617061e-07
3.03306505075e-07
0.00088927169725
2.51805075938e-07
3.03626851545e-07