/*--------------------------------*- C++ -*----------------------------------*\
| =========                 |                                                 |
| \\      /  F ield         | OpenFOAM: The Open Source CFD Toolbox           |
|  \\    /   O peration     | Version:  2406                                  |
|   \\  /    A nd           | Website:  www.openfoam.com                      |
|    \\/     M anipulation  |                                                 |
\*---------------------------------------------------------------------------*/
FoamFile
{
    version     2.0;
    format      ascii;
    arch        "LSB;label=32;scalar=64";
    class       surfaceScalarField;
    location    "0.01";
    object      phiHbyA;
}
// * * * * * * * * * * * * * * * * * * * * * * * * * * * * * * * * * * * * * //

dimensions      [0 3 -1 0 0 0 0];

oriented        oriented;

internalField   nonuniform List<scalar> 
87363
(
1.93215174196e-06
1.93230542143e-06
0.00088496879756
1.33966637256e-06
1.61549153549e-06
0.000887845577423
1.09331275341e-06
9.9684318927e-07
0.000888070389053
8.93938048386e-07
1.32561950799e-06
0.000887713401569
6.74122952785e-07
1.23743091932e-06
0.000887832552175
5.75229514955e-07
1.28970386267e-06
0.000887645700901
4.34660417971e-07
1.28072620072e-06
0.000887686064974
3.71193815592e-07
1.28270481157e-06
0.000887641885132
2.81220519629e-07
1.28623610441e-06
0.000887631799119
2.32916597597e-07
1.28135601721e-06
0.000887600077003
1.70051068206e-07
1.28556640128e-06
0.000887633235348
1.28359776649e-07
1.28145403752e-06
0.000887592446306
7.95355236487e-08
1.28412699555e-06
0.000887602825369
3.96281545011e-08
1.28204502709e-06
0.000887600023485
1.2829290451e-06
0.000887597901694
1.61537039058e-06
1.33995174466e-06
0.000887845562781
1.53403242502e-06
1.53425510665e-06
0.000889152441321
9.18573638663e-07
1.14548868444e-06
0.00088938100674
7.47504663014e-07
1.29635844326e-06
0.000889145474695
5.22716526343e-07
1.22867624507e-06
0.000889186704498
4.29663974212e-07
1.25651115262e-06
0.000889067008113
3.25186699344e-07
1.24528155157e-06
0.00088907054524
2.68614885713e-07
1.24618252235e-06
0.000889058476985
2.07396202849e-07
1.24744265802e-06
0.00088903256256
1.67323946582e-07
1.24358625323e-06
0.000889015291014
1.24638455001e-07
1.24681650183e-06
0.000889041833087
9.20514074192e-08
1.24326281194e-06
0.000889007341046
5.80990000194e-08
1.24557350788e-06
0.000889015061059
2.83278069722e-08
1.24369339637e-06
0.000889014662039
1.24448475962e-06
0.000889011836416
9.96697051928e-07
1.09374494144e-06
0.000888070393535
1.14523152812e-06
9.18908167726e-07
0.00088938101364
7.72641118468e-07
7.72996763065e-07
0.000889570111501
6.59261791032e-07
8.72502738569e-07
0.000889397910611
4.90296644284e-07
8.39149511938e-07
0.00088941996018
4.08549464049e-07
8.66019261573e-07
0.000889323771272
3.18303423721e-07
8.58296465765e-07
0.000889316585584
2.62737951433e-07
8.62990305265e-07
0.000889313569465
2.06252542525e-07
8.63293646916e-07
0.000889282188637
1.65382504193e-07
8.6214970377e-07
0.000889268822649
1.2469115728e-07
8.64235805564e-07
0.000889292741682
9.1372265329e-08
8.62202201385e-07
0.000889259942344
5.82494718662e-08
8.63826382122e-07
0.000889266495905
2.81477070411e-08
8.62609566968e-07
0.000889266736558
8.63173642389e-07
0.000889263586972
1.32548420918e-06
8.94514277836e-07
0.000887713383637
1.29611048037e-06
7.4795518985e-07
0.000889145465212
8.72148731229e-07
6.59722671881e-07
0.000889397899167
7.10669294928e-07
7.11134857971e-07
0.000889226495938
5.18022241134e-07
6.89836405014e-07
0.000889245270281
4.24232033272e-07
7.08796127252e-07
0.000889146795569
3.2629429079e-07
7.02224875137e-07
0.000889137372028
2.67293882073e-07
7.06919925104e-07
0.000889134292521
2.08573385549e-07
7.0636003634e-07
0.000889101809646
1.66622084364e-07
7.06301104198e-07
0.000889088793296
1.2539522288e-07
7.07458081367e-07
0.000889112183798
9.16930485553e-08
7.06346180592e-07
0.000889079655317
5.84522663386e-08
7.07407093679e-07
0.000889085976386
2.82018443088e-08
7.06658351683e-07
0.000889086341559
7.07030894263e-07
0.000889083127962
1.23728758609e-06
6.74826339041e-07
0.000887832578823
1.22842293841e-06
5.2326931624e-07
0.000889186725086
8.38794659114e-07
4.90854596154e-07
0.000889419970126
6.89376042903e-07
5.18589495467e-07
0.000889245291652
5.05024156122e-07
5.05581051218e-07
0.000889268959887
4.1715873108e-07
5.18552640934e-07
0.000889171037315
3.21465119854e-07
5.1395274548e-07
0.000889163405099
2.64799068541e-07
5.18476592337e-07
0.000889160565193
2.06762711645e-07
5.17803072275e-07
0.00088912859419
1.65678578357e-07
5.18598835185e-07
0.000889115691409
1.24673330263e-07
5.19253989658e-07
0.000889139195117
9.13047800124e-08
5.1887289045e-07
0.000889106744769
5.8182134642e-08
5.19561249951e-07
0.000889113077146
2.80846363967e-08
5.1919394911e-07
0.00088911348341
5.19431149982e-07
0.000889110263375
1.28957174647e-06
5.76061692874e-07
0.000887645689988
1.25626960482e-06
4.30318388846e-07
0.000889067004577
8.65666994182e-07
4.09204273717e-07
0.000889323767882
7.08328871216e-07
4.24900054519e-07
0.000889146804983
5.17980380785e-07
4.17812568226e-07
0.000889171021965
4.26129558442e-07
4.26805180549e-07
0.000889070351478
3.26825083982e-07
4.2379561122e-07
0.000889062692765
2.68592353448e-07
4.27481143686e-07
0.000889058894956
2.08930625287e-07
4.26853532295e-07
0.000889026884748
1.67257535021e-07
4.27825351666e-07
0.000889013698637
1.25584776856e-07
4.28177172006e-07
0.000889037167575
9.19571477405e-08
4.28154183409e-07
0.000889004661141
5.85254760602e-08
4.28594255513e-07
0.000889010980059
2.82517410805e-08
4.28447828588e-07
0.000889011383828
4.28586927296e-07
0.000889008158218
1.2805870249e-06
4.3559105062e-07
0.00088768612081
1.24503741842e-06
3.25920492997e-07
0.000889070588351
8.57950456318e-07
3.19038571821e-07
0.000889316616717
7.01771629631e-07
3.27046718567e-07
0.00088913741766
5.1340208619e-07
3.22199937165e-07
0.000889163425479
4.23146956973e-07
3.27586036498e-07
0.000889062735313
3.24637249937e-07
3.25367910355e-07
0.000889056109457
2.67380289263e-07
3.28094035561e-07
0.000889052297838
2.07986905471e-07
3.27572520985e-07
0.000889020683974
1.66746478153e-07
3.2857875948e-07
0.000889007496361
1.25137454567e-07
3.28781480566e-07
0.000889031086128
9.16952076667e-08
3.28996659755e-07
0.000888998579167
5.83119296791e-08
3.2928142095e-07
0.000889004920784
2.81519890416e-08
3.29287488709e-07
0.000889005331355
3.29360140479e-07
0.000889002102372
1.28257635599e-06
3.72230296231e-07
0.000887641889254
1.24594662268e-06
2.69430776932e-07
0.000889058486961
8.62641089347e-07
2.63553408055e-07
0.000889313580797
7.06453563285e-07
2.68127690549e-07
0.000889134320072
5.17903300053e-07
2.65614165656e-07
0.000889160562802
4.26801756536e-07
2.69437294555e-07
0.000889058914018
3.2732715981e-07
2.68194105929e-07
0.000889052265042
2.69419647469e-07
2.70273698713e-07
0.000889048033339
2.09311282448e-07
2.69966487878e-07
0.000889016406049
1.67716126516e-07
2.70874103232e-07
0.000889003061439
1.25716582682e-07
2.71004311162e-07
0.000889026645561
9.21020875239e-08
2.71294256237e-07
0.000888994090458
5.85243207857e-08
2.71472130015e-07
0.000889000426785
2.82552747313e-08
2.71549898146e-07
0.000889000824862
2.71577585751e-07
0.000888997591294
1.2860991935e-06
2.82323511208e-07
0.000887631888049
1.2472021904e-06
2.08267045642e-07
0.000889032632449
8.62952758537e-07
2.07125575252e-07
0.000889282243853
7.05915118882e-07
2.09465264698e-07
0.000889101882935
5.17261151223e-07
2.07636675327e-07
0.000889128638489
4.26213054747e-07
2.09835523439e-07
0.000889026959123
3.26849169252e-07
2.08861718967e-07
0.000889020707836
2.69157156738e-07
2.10226925001e-07
0.000889016474971
2.09104796252e-07
2.09977355361e-07
0.000888985034245
1.67653209942e-07
2.10706385974e-07
0.00088897169913
1.25656074916e-07
2.10775996244e-07
0.000888995352968
9.20985447008e-08
2.110809457e-07
0.000888962812245
5.85008493878e-08
2.11188740233e-07
0.000888969166264
2.8238645877e-08
2.11303614962e-07
0.00088896957792
2.11302840077e-07
0.000888966337997
1.28123138358e-06
2.34096129139e-07
0.000887600103651
1.24335618014e-06
1.68252625225e-07
0.000889015320662
8.61806194635e-07
1.66311991951e-07
0.000889268854503
7.05839984161e-07
1.67569923529e-07
0.000889088844924
5.18029201201e-07
1.66610980546e-07
0.000889115707871
4.27147448414e-07
1.68221429335e-07
0.000889013743627
3.2781153558e-07
1.67684177102e-07
0.000889007479641
2.70016153143e-07
1.68694154826e-07
0.000889003088857
2.09784513278e-07
1.68593845343e-07
0.000888971642957
1.68207750106e-07
1.691969105e-07
0.0008889582356
1.26042655634e-07
1.69262257543e-07
0.000888981887693
9.23851279523e-08
1.69550267814e-07
0.000888949320153
5.86655154123e-08
1.69620584361e-07
0.000888955672818
2.83174117557e-08
1.69744415575e-07
0.00088895607683
1.69728175776e-07
0.000888952835
1.28543365598e-06
1.71261130376e-07
0.000887633358047
1.24658404404e-06
1.25593259809e-07
0.000889041930239
8.63905013171e-07
1.25651286201e-07
0.000889292823073
7.07024853014e-07
1.26372552606e-07
0.000889112287104
5.18724293846e-07
1.2563863586e-07
0.000889139265545
4.27548634744e-07
1.26579120343e-07
0.00088903727596
3.28069553473e-07
1.26110596032e-07
0.000889031136309
2.70203696299e-07
1.26725494794e-07
0.000889026753315
2.09909840525e-07
1.26635335638e-07
0.00088899537991
1.68322665311e-07
1.2706470559e-07
0.000888981986839
1.26113672294e-07
1.27095432175e-07
0.000889005671468
9.24448558615e-08
1.27327949847e-07
0.00088897311962
5.86873856796e-08
1.2736424057e-07
0.000888979478138
2.83166029743e-08
1.27474312979e-07
0.000888979897578
1.27449707236e-07
0.000888976644832
1.28133441913e-06
1.29611732978e-07
0.000887592501206
1.24304121701e-06
9.30358569946e-08
0.000889007394402
8.61868420939e-07
9.23614421569e-08
0.000889259998519
7.05895626658e-07
9.26972592342e-08
0.000889079734895
5.18313672377e-07
9.23020464954e-08
0.000889106785091
4.27486113673e-07
9.29805726848e-08
0.000889004737094
3.28238452494e-07
9.27054148436e-08
0.000888998585347
2.70442449412e-07
9.31430597369e-08
0.000888994151986
2.1016295879e-07
9.31215120071e-08
0.000888962777914
1.68560078518e-07
9.34442777114e-08
0.000888949356491
1.26301977423e-07
9.34773925795e-08
0.000888973040425
9.2593118106e-08
9.36621866154e-08
0.000888940475699
5.8778382289e-08
9.36858240134e-08
0.000888946834372
2.83601901769e-08
9.37769553438e-08
0.000888947248816
9.37526078527e-08
0.000888943996267
1.28399933672e-06
8.07822783343e-08
0.000887602979074
1.24535053031e-06
5.90809908127e-08
0.000889015182981
8.63507561114e-07
5.9241316863e-08
0.000889266602721
7.0698790941e-07
5.94564269571e-08
0.000889086108213
5.19046804462e-07
5.91844934127e-08
0.000889113173572
4.2798169855e-07
5.95480767108e-08
0.000889011120636
3.28585450401e-07
5.93296516981e-08
0.000889004997932
2.7068547467e-07
5.95639528515e-08
0.000889000570996
2.10334554974e-07
5.95346032834e-08
0.000888969221578
1.68688476158e-07
5.972421774e-08
0.000888955812587
1.26386416488e-07
5.97345831681e-08
0.000888979507489
9.26508421649e-08
5.98496605048e-08
0.000888946956662
5.88032921871e-08
5.98572554864e-08
0.000888953313514
2.83600069164e-08
5.99158541014e-08
0.00088895374128
5.98955403553e-08
0.000888950476786
1.2819312637e-06
4.08798917421e-08
0.000887600109627
1.24348241054e-06
2.93100315753e-08
0.000889014740455
8.622892985e-07
2.91397119036e-08
0.000889266818629
7.06223849382e-07
2.92026777836e-08
0.000889086449665
5.18652636032e-07
2.90897927808e-08
0.000889113550595
4.27798907898e-07
2.92712840853e-08
0.000889011492072
3.28548554595e-07
2.91771915286e-08
0.000889005366309
2.70715932997e-07
2.92936718483e-08
0.000889000923223
2.10401635907e-07
2.92858648249e-08
0.000888969574621
1.68766258592e-07
2.93784349863e-08
0.00088895615463
1.2645677967e-07
2.9384035354e-08
0.00088897985129
9.27103261077e-08
2.94391088643e-08
0.000888947293348
5.88424066034e-08
2.94408159621e-08
0.000888953652685
2.83801042442e-08
2.94677353516e-08
0.00088895407662
2.94554623069e-08
0.000888950814791
1.28280672048e-06
0.000887598080631
1.24427200354e-06
0.000889011977852
8.62867769135e-07
0.000889263715942
7.06627012101e-07
0.000889083283257
5.18933937197e-07
0.000889110383089
4.27992895652e-07
0.000889008324436
3.28683000457e-07
0.000889002204582
2.70809057528e-07
0.000888997763895
2.10465408059e-07
0.000888966420533
1.68810083325e-07
0.000888953006097
1.2648278811e-07
0.000888976703471
9.27240968456e-08
0.000888944152072
5.88437257329e-08
0.000888950507352
2.83715911955e-08
0.000888950937465
0.000888947667469
5.50212026303e-07
5.50375769158e-07
0.000883880612914
5.21506628277e-07
7.3296913996e-07
0.000887153955247
5.87910282045e-07
6.64297900678e-07
0.000887346617734
5.17822465469e-07
7.29693818245e-07
0.000887066479952
4.71327834308e-07
7.17677269259e-07
0.000887166741287
4.14191497333e-07
7.21340950994e-07
0.000886993207602
3.52850652041e-07
7.23162458978e-07
0.000887029844162
3.05217391532e-07
7.17846228831e-07
0.000886982269536
2.48517549637e-07
7.22126968546e-07
0.000886972497537
2.06770359477e-07
7.16509505074e-07
0.000886934985367
1.57462843616e-07
7.20254696034e-07
0.00088696897844
1.18644584216e-07
7.1630109233e-07
0.000886923888829
7.52514700139e-08
7.18641825575e-07
0.000886934802183
3.70401943442e-08
7.16683917619e-07
0.000886929862986
7.17466909633e-07
0.000886927858214
7.32805685384e-07
5.21832153159e-07
0.000887153938517
6.91095059103e-07
6.9142226028e-07
0.00088924610042
6.27784111378e-07
6.4757373447e-07
0.00088946598729
5.54583301144e-07
7.0019739617e-07
0.00088925835483
4.81173061125e-07
6.86880475649e-07
0.000889294423038
4.1720737649e-07
6.96342244925e-07
0.000889165245691
3.5291844523e-07
6.95348323405e-07
0.000889166109438
3.00634686039e-07
6.93886717179e-07
0.000889142921358
2.46336228364e-07
6.97292852474e-07
0.000889115583532
2.01819249451e-07
6.93263254738e-07
0.000889090323343
1.55420506167e-07
6.96845288392e-07
0.000889116021889
1.15383285305e-07
6.93492713702e-07
0.00088907670693
7.41306545424e-08
6.95897665307e-07
0.000889083926714
3.59604625104e-08
6.94118458765e-07
0.000889081309313
6.94939895683e-07
0.000889078273892
6.64102911925e-07
5.88415387347e-07
0.000887346641728
6.47199258633e-07
6.28279567546e-07
0.000889466011905
6.0994432491e-07
6.1046292336e-07
0.000889642764338
5.4875323535e-07
6.53589007051e-07
0.000889510118742
4.7727859182e-07
6.47538412643e-07
0.000889527447265
4.14563965663e-07
6.61220891933e-07
0.000889424453253
3.51381554841e-07
6.60653021741e-07
0.000889411277563
2.98038219516e-07
6.62852210151e-07
0.00088939948933
2.45296289252e-07
6.65268638872e-07
0.000889364229694
1.99770449788e-07
6.63481898682e-07
0.000889344719927
1.54645358679e-07
6.6613734483e-07
0.000889366368953
1.1406613753e-07
6.64051532143e-07
0.000889329826271
7.37117176706e-08
6.65882720518e-07
0.000889335152767
3.55236390827e-08
6.64673691615e-07
0.000889333656072
6.65293844015e-07
0.000889330086096
7.29518485975e-07
5.18496751747e-07
0.000887066460235
6.99842512224e-07
5.55245250782e-07
0.000889258353434
6.53079888789e-07
5.49418178216e-07
0.000889510105828
5.75459464915e-07
5.76121468138e-07
0.000889393000476
4.92638168508e-07
5.71837238888e-07
0.000889407506055
4.23497457581e-07
5.82440275475e-07
0.000889304874779
3.55972710891e-07
5.81462798982e-07
0.000889288355771
3.00555027891e-07
5.84008085368e-07
0.000889277485368
2.46513131058e-07
5.85262624614e-07
0.000889240722704
2.00282535395e-07
5.84604887691e-07
0.000889221890011
1.54873038737e-07
5.86354032209e-07
0.000889242772194
1.14065321814e-07
5.85105607201e-07
0.000889206693721
7.37144740789e-08
5.8638895726e-07
0.000889211666129
3.54839417533e-08
5.85605839466e-07
0.000889210384774
5.86034903658e-07
0.000889206714069
7.17494388775e-07
4.72151033707e-07
0.000887166810786
6.86520042875e-07
4.81981748176e-07
0.000889294485263
6.47027138263e-07
4.78078016032e-07
0.000889527479414
5.71177245593e-07
4.93439818201e-07
0.000889407550582
4.89774060145e-07
4.90569700404e-07
0.000889426755285
4.21918084445e-07
4.98828592823e-07
0.000889324382201
3.54969170573e-07
4.98003649286e-07
0.000889309292916
3.00328845194e-07
5.00973069333e-07
0.000889298538209
2.46361102838e-07
5.01757393472e-07
0.000889262131952
2.00417326392e-07
5.02058325154e-07
0.000889243401021
1.54977312608e-07
5.03263345629e-07
0.000889264318966
1.14216049775e-07
5.02759197229e-07
0.000889228336724
7.37942331535e-08
5.03660313386e-07
0.000889233282696
3.55210072088e-08
5.03251049286e-07
0.000889232060004
5.03535668066e-07
0.000889228367649
7.21174689403e-07
4.15163451398e-07
0.000886993202022
6.95998359763e-07
4.18160807401e-07
0.000889165265618
6.60715252914e-07
4.15497450717e-07
0.000889424464292
5.8177582959e-07
4.24436460424e-07
0.000889304901292
4.98020717344e-07
4.22847996543e-07
0.000889324357736
4.27979263826e-07
4.28928229171e-07
0.000889219048087
3.58885766324e-07
4.28264888242e-07
0.000889204042238
3.03005263676e-07
4.30899243595e-07
0.000889192240988
2.47862808303e-07
4.31320246462e-07
0.000889155716858
2.01380233611e-07
4.31978167766e-07
0.000889136639414
1.55430977781e-07
4.32779450892e-07
0.000889157432761
1.14490038805e-07
4.32673229229e-07
0.000889121342008
7.38989111164e-08
4.3328673524e-07
0.00088912621705
3.55676812014e-08
4.3309763831e-07
0.000889124991851
4.33273902161e-07
0.000889121282761
7.22986691954e-07
3.5393806513e-07
0.000887029973352
6.9499619581e-07
3.53988608791e-07
0.000889166227109
6.60147566772e-07
3.52426931371e-07
0.000889411360116
5.80809272338e-07
3.57026056099e-07
0.000889288453368
4.97213740355e-07
3.56012867278e-07
0.000889309339901
4.27338614784e-07
3.59953254768e-07
0.000889204125479
3.58440055239e-07
3.59482552734e-07
0.000889189779559
3.02910187629e-07
3.61661965627e-07
0.000889177990988
2.47826809176e-07
3.61898120445e-07
0.000889141845288
2.01558830025e-07
3.62701954623e-07
0.000889122841434
1.5558639983e-07
3.63239820266e-07
0.000889143810941
1.14688630678e-07
3.6338558868e-07
0.00088910781129
7.40072122276e-08
3.63805394936e-07
0.000889112742745
3.56163616315e-08
3.63780245387e-07
0.000889111549942
3.63884787642e-07
0.000889107831118
7.17687179178e-07
3.06426090783e-07
0.000886982295747
6.93550060211e-07
3.01820728664e-07
0.000889142980314
6.62351688789e-07
2.99192229748e-07
0.000889399539161
5.83346099761e-07
3.01719115958e-07
0.00088927755621
5.00164144006e-07
3.01483910895e-07
0.000889298549405
4.29945331539e-07
3.04187220865e-07
0.00088919228757
3.60585904589e-07
3.04068082816e-07
0.000889177938085
3.04645657082e-07
3.05841740081e-07
0.000889165680464
2.4908948427e-07
3.06033116625e-07
0.000889129483612
2.02549165293e-07
3.06820543492e-07
0.000889110294484
1.56251803267e-07
3.072012159e-07
0.000889131237247
1.15168094482e-07
3.07458716614e-07
0.000889095178015
7.42743150614e-08
3.07751316775e-07
0.00088910009017
3.57393260835e-08
3.07814591473e-07
0.000889098882873
3.07869867181e-07
0.000889095153184
7.21958510123e-07
2.49802491581e-07
0.000886972694905
6.96951277045e-07
2.47600792814e-07
0.000889115766032
6.64776292133e-07
2.46531227547e-07
0.000889364367675
5.84621286693e-07
2.47759481965e-07
0.000889240884048
5.00979181978e-07
2.47599806986e-07
0.000889262236248
4.30403627665e-07
2.4912904484e-07
0.000889155871648
3.60862634621e-07
2.49071973242e-07
0.00088914190337
3.04877025942e-07
2.50374074011e-07
0.000889129615253
2.49232410744e-07
2.50480484216e-07
0.000889093615448
2.02702588854e-07
2.5116447894e-07
0.000889074439204
1.56337402432e-07
2.51421601585e-07
0.000889095464119
1.15249032798e-07
2.5171494776e-07
0.000889059436772
7.4299730692e-08
2.51912657253e-07
0.000889064371986
3.57383909379e-08
2.5202022823e-07
0.000889063193665
2.52041692003e-07
0.000889059451915
7.16358954672e-07
2.08141198633e-07
0.000886935058648
6.92935755336e-07
2.0316350033e-07
0.000889090435374
6.62990568643e-07
2.01081209838e-07
0.000889344820801
5.8395153774e-07
2.01604538575e-07
0.000889222018723
5.01257295599e-07
2.01735004423e-07
0.000889243461663
4.31029846569e-07
2.02725298533e-07
0.000889136748213
3.61628646219e-07
2.02889069096e-07
0.000889122834943
3.05622065107e-07
2.0391913698e-07
0.00088911036011
2.49873268351e-07
2.04043354951e-07
0.00088907434951
2.03251295521e-07
2.04634767038e-07
0.000889055084633
1.56743714671e-07
2.04834020626e-07
0.000889076105615
1.15555557034e-07
2.05123693207e-07
0.0008890400476
7.4480491985e-08
2.05264030536e-07
0.000889044981298
3.58201764103e-08
2.05385529865e-07
0.000889043796323
2.05387268501e-07
0.000889040051327
7.20094686679e-07
1.58867346719e-07
0.000886969245585
6.96513837183e-07
1.56802329145e-07
0.000889116272846
6.65658506798e-07
1.5599854506e-07
0.000889366569886
5.85728872223e-07
1.56237098314e-07
0.000889243002993
5.02502990287e-07
1.56340970831e-07
0.000889264486899
4.31880297768e-07
1.56819377067e-07
0.00088915766492
3.62219982993e-07
1.56967275012e-07
0.000889143935206
3.06056186736e-07
1.57669007057e-07
0.000889131455715
2.50179957237e-07
1.57734595443e-07
0.000889095532625
2.034919656e-07
1.58179157287e-07
0.000889076288769
1.56902733187e-07
1.58307837787e-07
0.00088909735201
1.15670363981e-07
1.58549275088e-07
0.000889061321984
7.45331442876e-08
1.5863867221e-07
0.000889066263234
3.58280469919e-08
1.5874837444e-07
0.000889065104267
1.58737669269e-07
0.000889061340904
7.16160428783e-07
1.20093802804e-07
0.000886924020631
6.93177019147e-07
1.16803548973e-07
0.000889076881138
6.63574724233e-07
1.15455745826e-07
0.000889329987128
5.84468891015e-07
1.15464002217e-07
0.000889206888624
5.0197636654e-07
1.15619553234e-07
0.000889228457729
4.31742604553e-07
1.15915534932e-07
0.000889121523359
3.62328342931e-07
1.16116191387e-07
0.000889107866454
3.06272346647e-07
1.16628043605e-07
0.000889095323948
2.50431809442e-07
1.16701228823e-07
0.000889059409447
2.03741426321e-07
1.17040902893e-07
0.000889040132766
1.57109147438e-07
1.17139746555e-07
0.000889061199875
1.1583454241e-07
1.17332938032e-07
0.000889025155844
7.46344882793e-08
1.17394296214e-07
0.000889030100054
3.58725960792e-08
1.17484512942e-07
0.000889028936484
1.17470502141e-07
0.000889025173543
7.18492061304e-07
7.66917483341e-08
0.000886935133242
6.95579448374e-07
7.55466042632e-08
0.000889084241985
6.65421476967e-07
7.51033819437e-08
0.000889335415598
5.85785186979e-07
7.51134449567e-08
0.000889211963966
5.02924247689e-07
7.52030633523e-08
0.000889233514872
4.32412588236e-07
7.53248732082e-08
0.000889126523933
3.62810049486e-07
7.54441601363e-08
0.00088911293605
3.06627919613e-07
7.5736535436e-08
0.000889100393306
2.50688881999e-07
7.5766525445e-08
0.000889064514841
2.03933304275e-07
7.59720282556e-08
0.000889045257502
1.57238289249e-07
7.60239426897e-08
0.000889066341286
1.15920725263e-07
7.61453857638e-08
0.000889030319302
7.46740248538e-08
7.61769337877e-08
0.000889035261249
3.58748999149e-08
7.62340700031e-08
0.000889034117414
7.6220082705e-08
0.000889030335427
7.1655446929e-07
3.8481672461e-08
0.000886930058552
6.93817763316e-07
3.73721665713e-08
0.000889081547812
6.64216731333e-07
3.69105652868e-08
0.000889333879336
5.84993432307e-07
3.6875194973e-08
0.000889210646502
5.02495847571e-07
3.69277988069e-08
0.00088923224669
4.32195986072e-07
3.6986709304e-08
0.000889125248726
3.62752369123e-07
3.70564564523e-08
0.000889111677234
3.06655756144e-07
3.71976806264e-08
0.000889099114641
2.5076153887e-07
3.72151554422e-08
0.000889063245945
2.04022069957e-07
3.73132921755e-08
0.000889043977378
1.57320821125e-07
3.73370959446e-08
0.00088906506803
1.1599033122e-07
3.73927761191e-08
0.000889029038729
7.47192140477e-08
3.74050426631e-08
0.000889033986928
3.58953399989e-08
3.74286521011e-08
0.000889032838794
3.74190384625e-08
0.000889029061492
7.17328289135e-07
0.000886928240498
6.94636702582e-07
0.000889078642089
6.64852492116e-07
0.000889330403173
5.85455630342e-07
0.00088920706848
5.02827650787e-07
0.000889228657718
4.32429955875e-07
0.000889121652491
3.62920802883e-07
0.000889108088652
3.06777181867e-07
0.000889095526763
2.50846449006e-07
0.000889059666748
2.04080943808e-07
0.000889040406361
1.57356200354e-07
0.000889061498454
1.16008800019e-07
0.000889025478075
7.47211206162e-08
0.000889030419816
3.58843532555e-08
0.000889029279378
0.0008890254884
4.73208339586e-07
4.73360470752e-07
0.000882922445351
4.82538591396e-07
5.95182217313e-07
0.000886543332804
5.67416572508e-07
5.69516936152e-07
0.000886679753463
5.08080916766e-07
6.15261393688e-07
0.000886506119118
4.75832507951e-07
6.08272238613e-07
0.000886578966626
4.1901828877e-07
6.16496164781e-07
0.000886429162532
3.6109975919e-07
6.19598056201e-07
0.000886457628372
3.12218423841e-07
6.17139086914e-07
0.000886409180328
2.55395507351e-07
6.22042688325e-07
0.000886397901998
2.12236379978e-07
6.17874534076e-07
0.000886354867722
1.61941456709e-07
6.21944238152e-07
0.000886388895981
1.21846231849e-07
6.18702560915e-07
0.000886339326501
7.73590303102e-08
6.21193446416e-07
0.000886350408841
3.80087970094e-08
6.19531032317e-07
0.000886343199166
6.20352320561e-07
0.000886341188707
5.95036884696e-07
4.82837258229e-07
0.000886543307623
5.4820188645e-07
5.48505152753e-07
0.000889340525686
5.67299616896e-07
5.3249112657e-07
0.000889477465184
5.19494124545e-07
5.60694275747e-07
0.00088936354797
4.71994991013e-07
5.55503931957e-07
0.000889389792427
4.16171476534e-07
5.62446808412e-07
0.000889277914448
3.58300375132e-07
5.64838255376e-07
0.00088927534931
3.07179653738e-07
5.62881682506e-07
0.00088925059564
2.53632497667e-07
5.67439990075e-07
0.000889221546234
2.08283102161e-07
5.63455070455e-07
0.000889191805295
1.60933048074e-07
5.6755149652e-07
0.000889216512398
1.19529039774e-07
5.6426688657e-07
0.000889173708445
7.68948632514e-08
5.66874544218e-07
0.000889180353982
3.72491136861e-08
5.6514512908e-07
0.000889175984533
5.66002508923e-07
0.000889172708482
5.69330780106e-07
5.67887970871e-07
0.000886679798809
5.32124843567e-07
5.67775056276e-07
0.000889477510689
5.37486529333e-07
5.38000298598e-07
0.000889618154821
4.96381354552e-07
5.56901100477e-07
0.000889550190076
4.51517049962e-07
5.54086890928e-07
0.000889560764069
4.00401097227e-07
5.6262031176e-07
0.000889470068461
3.4696749185e-07
5.64486241322e-07
0.000889453434143
2.9761666008e-07
5.65021107585e-07
0.00088944066312
2.47514798888e-07
5.6830871777e-07
0.000889403045907
2.02665356447e-07
5.66254775852e-07
0.000889380095924
1.57730259881e-07
5.69301785171e-07
0.000889400050847
1.16589860882e-07
5.67193944473e-07
0.000889360827414
7.55031801801e-08
5.69165880911e-07
0.000889365141586
3.63284041687e-08
5.67987521572e-07
0.000889362287185
5.68615302648e-07
0.000889358341701
6.15094211613e-07
5.08716473899e-07
0.000886506087097
5.60341704292e-07
5.20143132089e-07
0.000889363548392
5.56385203631e-07
4.9704943446e-07
0.000889550166043
5.08950783564e-07
5.09634206495e-07
0.000889493519015
4.58579952302e-07
5.06432644156e-07
0.000889502790679
4.04844686513e-07
5.13849042033e-07
0.000889412897159
3.4905668929e-07
5.14397951448e-07
0.0008893935018
2.98717243822e-07
5.15930608332e-07
0.000889381762011
2.47988584968e-07
5.17899193773e-07
0.000889342535742
2.02778394432e-07
5.17090933005e-07
0.000889320513281
1.57746457103e-07
5.19171418428e-07
0.000889339565521
1.16476979264e-07
5.17960334388e-07
0.000889300953638
7.54444634795e-08
5.1935877473e-07
0.000889304814676
3.62590758513e-08
5.18629397678e-07
0.000889302248435
5.19047113708e-07
0.000889298167743
6.08094882134e-07
4.76611410259e-07
0.000886579086248
5.55150147204e-07
4.72794216274e-07
0.00088938990219
5.53580691104e-07
4.5232530088e-07
0.000889560817048
5.0577151988e-07
4.59414123351e-07
0.000889502869739
4.5618497037e-07
4.56986236809e-07
0.000889514000319
4.03283236983e-07
4.63312249111e-07
0.000889424237934
3.47868200756e-07
4.63484442353e-07
0.00088940551524
2.98129376384e-07
4.65723377402e-07
0.000889393959031
2.47543548423e-07
4.66965789372e-07
0.00088935485699
2.02617402106e-07
4.67123187994e-07
0.00088933305452
1.57626790199e-07
4.68548635687e-07
0.000889352060542
1.16451265527e-07
4.68073544314e-07
0.000889313621736
7.5415901196e-08
4.69044422803e-07
0.000889317411395
3.6237089805e-08
4.6869889191e-07
0.000889314944293
4.68952063451e-07
0.000889310815959
6.16333159742e-07
4.19945567618e-07
0.000886429148109
5.62099166007e-07
4.17121645042e-07
0.000889277949445
5.62101005864e-07
4.01352004775e-07
0.000889470079395
5.13155138649e-07
4.05829469497e-07
0.000889412939812
4.62461598081e-07
4.04226495108e-07
0.000889424185543
4.08051774743e-07
4.09058376699e-07
0.000889332729272
3.51172034821e-07
4.09125332104e-07
0.000889313733019
3.00657801329e-07
4.11233451884e-07
0.000889301420058
2.49187726815e-07
4.11973142258e-07
0.000889262139806
2.03871649613e-07
4.12481920664e-07
0.000889240112779
1.58405798503e-07
4.13410200389e-07
0.000889258998882
1.17000420179e-07
4.13316912546e-07
0.000889220532259
7.57032998093e-08
4.13961771739e-07
0.000889224251776
3.6369999949e-08
4.13852820575e-07
0.000889221799118
4.13981333603e-07
0.000889217642486
6.19427211571e-07
3.62135550216e-07
0.000886457843016
5.64496898321e-07
3.59366170748e-07
0.000889275551117
5.63994651364e-07
3.4803572677e-07
0.000889453564256
5.13753506954e-07
3.50164262104e-07
0.000889393670174
4.62699746376e-07
3.48928959184e-07
0.000889405590258
4.0819813031e-07
3.52305886807e-07
0.00088931388883
3.51204992456e-07
3.52250864086e-07
0.000889295452699
3.00776603896e-07
3.54088198913e-07
0.000889283092042
2.49223618001e-07
3.54544997343e-07
0.000889244059884
2.03986639847e-07
3.55258331233e-07
0.000889222085889
1.58462444929e-07
3.55883043185e-07
0.000889241057355
1.17089046705e-07
3.56068378265e-07
0.000889202678846
7.5738492184e-08
3.56496096582e-07
0.000889206404023
3.63720801278e-08
3.56562206732e-07
0.000889204022442
3.56600563681e-07
0.000889199828181
6.1698148334e-07
3.13378874457e-07
0.000886409209139
5.62536905862e-07
3.08368122198e-07
0.000889250693968
5.64501172261e-07
2.98802982627e-07
0.000889440732577
5.15232160879e-07
2.99946642965e-07
0.000889381876775
4.64862944781e-07
2.99310483819e-07
0.000889393956686
4.10211081143e-07
3.01919937402e-07
0.000889301496374
3.52933199025e-07
3.01948143285e-07
0.000889282971159
3.02255605523e-07
3.03547390699e-07
0.000889270151252
2.50334390747e-07
3.03875758415e-07