/*--------------------------------*- C++ -*----------------------------------*\
| =========                 |                                                 |
| \\      /  F ield         | OpenFOAM: The Open Source CFD Toolbox           |
|  \\    /   O peration     | Version:  2406                                  |
|   \\  /    A nd           | Website:  www.openfoam.com                      |
|    \\/     M anipulation  |                                                 |
\*---------------------------------------------------------------------------*/
FoamFile
{
    version     2.0;
    format      ascii;
    arch        "LSB;label=32;scalar=64";
    class       volVectorField;
    location    "0.01";
    object      U;
}
// * * * * * * * * * * * * * * * * * * * * * * * * * * * * * * * * * * * * * //

dimensions      [0 1 -1 0 0 0 0];

internalField   nonuniform List<vector> 
29767
(
(0.00118214806197 0.00118214610918 0.79663867931)
(0.000931088153671 0.000559604318006 0.799143940048)
(0.000534398523076 0.00023642135337 0.799354789576)
(0.000661610201918 0.000502816863483 0.799052445476)
(0.000316214489333 0.000456802741282 0.799131107126)
(0.000421188316643 0.000499490438002 0.798994361173)
(0.000208006028275 0.000497074946919 0.799027431034)
(0.000267456077995 0.000500618455391 0.798966266058)
(0.000138563540231 0.000503517333979 0.798979553381)
(0.000169050496197 0.000501514150997 0.798951875724)
(8.57151050291e-05 0.000504003520769 0.798956932991)
(0.000100292839383 0.000502075758958 0.798944484354)
(4.0106960524e-05 0.000503529510979 0.798946248882)
(4.68900381893e-05 0.000502526572774 0.798941408794)
(-3.54662087666e-06 0.000502997209131 0.798941812673)
(0.00055959847013 0.00093125826657 0.799143931472)
(0.00121749687805 0.00121762359538 0.800186977536)
(0.000464329882969 0.000863509709927 0.800358177411)
(0.000541544206566 0.000957351988616 0.800197358459)
(0.00027705644682 0.000906525197485 0.800206619475)
(0.000295229965749 0.000921184957503 0.800145373941)
(0.000175227917437 0.000913701605196 0.800148110545)
(0.000180796213698 0.000912307139569 0.80012208985)
(0.000113307306811 0.000913294537515 0.800122695077)
(0.00011375482697 0.000909961620146 0.800110835871)
(6.94419662354e-05 0.000912034144797 0.800110706215)
(6.70139144997e-05 0.000909502431705 0.800105262493)
(3.37683990056e-05 0.000910961908608 0.800105025015)
(2.98378063152e-05 0.000909680589536 0.800102868117)
(1.17519880988e-06 0.000910182209864 0.80010276137)
(0.000236400816628 0.000534540570225 0.799354786476)
(0.000863370226273 0.000464446754458 0.80035817214)
(0.00039175532343 0.0003918972369 0.800540739512)
(0.000453938754987 0.000464377776052 0.80039949077)
(0.000267921342675 0.000440368657912 0.800393324815)
(0.000268684582865 0.000456583030508 0.800345469363)
(0.000178658045103 0.000451596126939 0.800341267665)
(0.000169786019348 0.000454024948816 0.800321420468)
(0.000117893168506 0.000454429210385 0.800318779523)
(0.000107902521227 0.000453546048727 0.800309535939)
(7.31737338001e-05 0.000454976045667 0.800307806253)
(6.3334598948e-05 0.000453647520493 0.80030357395)
(3.67060979544e-05 0.000454715848232 0.800302631053)
(2.70628254496e-05 0.000453926675816 0.800300950528)
(3.75349197104e-06 0.000454299686144 0.800300646192)
(0.000502799764562 0.000661940970009 0.799052443833)
(0.000957221031325 0.00054179350185 0.800197353317)
(0.000464237587141 0.000454186201091 0.800399487844)
(0.000491370527756 0.000491617793356 0.800241346036)
(0.00028723474776 0.000478538038054 0.800232471552)
(0.000279910259872 0.000492121486019 0.800180069267)
(0.000184726700902 0.000488493950671 0.800175107142)
(0.000172503197108 0.000491259786379 0.800154282799)
(0.000120196208954 0.000491194893221 0.800150874472)
(0.000108145926313 0.000490824095326 0.800141863987)
(7.4293377893e-05 0.000491663430932 0.80013977364)
(6.29846603025e-05 0.000490776448616 0.8001357513)
(3.74072076376e-05 0.000491492674378 0.800134642175)
(2.65823107766e-05 0.000490934963084 0.800133065527)
(4.29284812344e-06 0.000491187988267 0.800132714447)
(0.000456781444188 0.000316514169218 0.799131123288)
(0.000906389566742 0.000277300415102 0.800206621216)
(0.000440227183261 0.00026817853785 0.800393326804)
(0.000478291072183 0.000287497226859 0.800232475331)
(0.000276666789707 0.000276923832457 0.800225849638)
(0.000276051677483 0.000284325891685 0.800173810159)
(0.000180736643805 0.000280644710013 0.800170166901)
(0.000171137979716 0.000283053802662 0.800149609152)
(0.000118795651935 0.000282506015389 0.800146608615)
(0.000107540325598 0.000282816256785 0.800137765962)
(7.38547103902e-05 0.000283226932067 0.800135782686)
(6.26238673796e-05 0.000282909778154 0.800131854659)
(3.73385028076e-05 0.000283357738003 0.800130761845)
(2.63518782047e-05 0.0002830854162 0.800129224227)
(4.39371996709e-06 0.000283246295242 0.800128873615)
(0.0004994741276 0.000421658211223 0.798994379827)
(0.000921056692081 0.000295591240406 0.800145380159)
(0.000456447207059 0.000269038277873 0.800345475984)
(0.000491871747653 0.000280268903982 0.800180078042)
(0.000284063991465 0.000276404301045 0.800173816606)
(0.00028299249156 0.000283357263512 0.800120339603)
(0.000183718950953 0.000281924087558 0.800116140654)
(0.000174082642465 0.000284502733723 0.800094993912)
(0.000120046280223 0.000284309219005 0.800091968831)
(0.00010868678816 0.000284881418767 0.800083032476)
(7.44545333857e-05 0.000285172320459 0.800081115889)
(6.3031645659e-05 0.000285086798471 0.800077256239)
(3.76515573342e-05 0.000285392897822 0.800076210844)
(2.64175959817e-05 0.00028525768807 0.800074680904)
(4.51238461897e-06 0.000285360344901 0.800074328936)
(0.000497056726413 0.000208446694222 0.799027474732)
(0.000913567424145 0.000175583249399 0.800148126971)
(0.000451463259462 0.000179021356891 0.800341280493)
(0.000488248077782 0.000185099619143 0.800175124084)
(0.000280394410716 0.000181099875083 0.800170180959)
(0.000281571593505 0.000184094153443 0.80011614667)
(0.000181822931594 0.000182180561463 0.800113201181)
(0.000173549389412 0.000183660747332 0.800091907991)
(0.000119232760682 0.00018316373359 0.800089161002)
(0.000108453278295 0.000183665415379 0.800080088767)
(7.41215457901e-05 0.000183743910661 0.800078159554)
(6.2870551536e-05 0.000183817886308 0.800074169579)
(3.75252525593e-05 0.000183992195806 0.800073083644)
(2.63101752012e-05 0.00018396421437 0.80007153703)
(4.51096494316e-06 0.000184016424659 0.800071188872)
(0.000500605709235 0.000268033686597 0.798966311104)
(0.000912179315845 0.000181244405614 0.800122111936)
(0.000453894902591 0.000170227644517 0.800321441922)
(0.000491007603413 0.000172954249538 0.800154305676)
(0.000282795306984 0.000171579209793 0.80014963091)
(0.000284133383762 0.000174540848084 0.800095007426)
(0.00018328593932 0.000173991606936 0.800091918156)
(0.000175046863014 0.000175512005913 0.800070267518)
(0.00011997805842 0.000175435146683 0.800067513969)
(0.00010916278847 0.000176044495762 0.800058312494)
(7.44764273125e-05 0.000176174267249 0.800056378632)
(6.31497406318e-05 0.000176347856396 0.800052353078)
(3.76909999534e-05 0.000176482698401 0.800051269882)
(2.637596559e-05 0.000176515927321 0.800049715417)
(4.55790108327e-06 0.000176544611339 0.800049369224)
(0.000503502468035 0.000139120111363 0.798979629929)
(0.000913159473239 0.000113752637162 0.800122730774)
(0.000454301275679 0.000118344498584 0.800318813063)
(0.00049094972571 0.000120658352669 0.800150906971)
(0.00028226418054 0.000119246878233 0.800146639599)
(0.000283957893712 0.000120513580651 0.80009198927)
(0.00018281395601 0.000119681551218 0.80008917806)
(0.000174993155954 0.000120448471799 0.800067517476)
(0.000119744408988 0.000120188447888 0.800064884969)
(0.000109170592738 0.000120580529418 0.800055676371)
(7.44014042782e-05 0.000120581793893 0.800053785348)
(6.31598911536e-05 0.000120736412684 0.800049752186)
(3.76787448253e-05 0.000120793376301 0.800048680538)
(2.63635330966e-05 0.000120844606787 0.800047120011)
(4.55266345189e-06 0.000120846866809 0.800046776932)
(0.000501506076237 0.000169700863015 0.798951952718)
(0.000909833289474 0.000114263163712 0.800110876887)
(0.000453422900555 0.000108407150874 0.800309575863)
(0.000490571243327 0.000108660527057 0.800141903447)
(0.000282564141241 0.000108045971715 0.800137806024)
(0.000284509647423 0.000109210603183 0.800083062429)
(0.000183294585953 0.000108962242404 0.800080118246)
(0.000175574917796 0.000109695318481 0.800058328792)
(0.000120110184624 0.000109681766632 0.800055693481)
(0.000109554187418 0.000110093698195 0.800046425876)
(7.46288644383e-05 0.000110159151599 0.800044532552)
(6.33580554645e-05 0.000110347397892 0.800040474399)
(3.77960388612e-05 0.000110405732141 0.800039401093)
(2.6427414453e-05 0.000110480305144 0.800037830171)
(4.57556160189e-06 0.000110477413684 0.800037487182)
(0.00050399299015 8.63555334555e-05 0.798957045536)
(0.000911899291008 6.99507445953e-05 0.800110762347)
(0.000454856694212 7.36870113069e-05 0.800307858747)
(0.000491420763414 7.481692417e-05 0.800139823516)
(0.000282995457231 7.43700704641e-05 0.800135832833)
(0.000284824097705 7.49865744079e-05 0.800081153843)
(0.000183404179599 7.4639375827e-05 0.800078196235)
(0.000175734822161 7.50153067329e-05 0.800056398254)
(0.000120144832554 7.49201941953e-05 0.800053805549)
(0.000109647999728 7.5173067303e-05 0.800044530583)
(7.46541224302e-05 7.51717278396e-05 0.800042657253)
(6.34053650468e-05 7.53062826721e-05 0.800038593794)
(3.78104981868e-05 7.53225244687e-05 0.800037528926)
(2.64344670937e-05 7.53838077784e-05 0.80003595365)
(4.56639776826e-06 7.53689008914e-05 0.800035614436)
(0.000502072148053 0.000100976599163 0.798944596219)
(0.000909375115051 6.75508335546e-05 0.800105323818)
(0.000453532659694 6.38727553752e-05 0.800303633005)
(0.000490525965245 6.35315002606e-05 0.800135808725)
(0.000282666879809 6.31655208167e-05 0.80013191446)
(0.000284717236395 6.35887222506e-05 0.800077305213)
(0.000183455616677 6.34183182549e-05 0.800074219926)
(0.000175879581973 6.37159904903e-05 0.800052387408)
(0.000120271472078 6.37133484264e-05 0.800049791759)
(0.000109806726658 6.39334628543e-05 0.800040492524)
(7.47620800921e-05 6.39626748064e-05 0.800038619489)
(6.35086529498e-05 6.40883766768e-05 0.800034544972)
(3.78733406815e-05 6.41098641974e-05 0.800033481137)
(2.64736707647e-05 6.41694713791e-05 0.800031900662)
(4.57618711631e-06 6.41572944466e-05 0.80003156256)
(0.000503522507515 4.07933434577e-05 0.798946398133)
(0.000910829081288 3.43097606012e-05 0.800105102217)
(0.000454604856638 3.7251331298e-05 0.800302703039)
(0.000491254758245 3.79603111829e-05 0.800134710456)
(0.000283136907555 3.7889041505e-05 0.80013083189)
(0.000285050763354 3.82155543335e-05 0.800076268122)
(0.000183663905105 3.80838975179e-05 0.800073141304)
(0.000176049302678 3.82651234303e-05 0.800051307935)
(0.000120365660374 3.82456681293e-05 0.80004872303)
(0.000109898458554 3.83810288591e-05 0.800039417382)
(7.4809232216e-05 3.83840210847e-05 0.800037552064)
(6.35525494674e-05 3.84649256456e-05 0.800033473306)
(3.7891591499e-05 3.84678198272e-05 0.800032414079)
(2.64819206152e-05 3.85083731985e-05 0.800030829985)
(4.56727090682e-06 3.84937198753e-05 0.800030494799)
(0.000502526100101 4.75681206191e-05 0.798941555884)
(0.000909556545603 3.03720344644e-05 0.800102949818)
(0.000453820182285 2.76039164642e-05 0.800301028573)
(0.000490690937294 2.71290631049e-05 0.80013314113)
(0.000282853681149 2.68991396906e-05 0.8001293033)
(0.000284896631318 2.69736972579e-05 0.800074748165)
(0.000183614485214 2.68662064881e-05 0.80007160794)
(0.000176056287401 2.69406476171e-05 0.800049768485)
(0.000120390630146 2.69288472601e-05 0.80004718154)
(0.000109946266323 2.7002199074e-05 0.800037867187)
(7.48462004436e-05 2.70078778174e-05 0.800036002423)
(6.35924452048e-05 2.70556624318e-05 0.800031919644)
(3.7916784993e-05 2.70600680487e-05 0.8000308614)
(2.64995843923e-05 2.70839291085e-05 0.800029275112)
(4.57172396622e-06 2.7076203441e-05 0.800028940764)
(0.00050299184398 -2.85461573064e-06 0.79894199666)
(0.000910053592071 1.7169892219e-06 0.800102858958)
(0.00045419568768 4.29910184821e-06 0.80030073684)
(0.000490957267617 4.84246977758e-06 0.800132800903)
(0.000283035033768 4.94756149731e-06 0.800128962656)
(0.000285027521878 5.07317910444e-06 0.800074404651)
(0.000183699127673 5.07807396595e-06 0.800071267131)
(0.000176120856282 5.13081154342e-06 0.800049427227)
(0.000120429364212 5.13464937339e-06 0.80004684178)
(0.000109978277267 5.163235239e-06 0.800037524452)
(7.48628200781e-05 5.16243215588e-06 0.800035661527)
(6.36047115926e-05 5.17629401912e-06 0.800031576641)
(3.79198405324e-05 5.17327282201e-06 0.800030519773)
(2.6498054856e-05 5.17902352623e-06 0.800028931721)
(4.56387844369e-06 5.173239372e-06 0.800028598429)
(0.000349377614926 0.000349369786393 0.796351088513)
(0.000251843886147 0.000389332445421 0.798973287945)
(0.000318253554773 0.000353713234577 0.799215591094)
(0.000324551888068 0.000396556540883 0.798873817896)
(0.000241642019362 0.000393648458762 0.798962026455)
(0.000273774334738 0.000395367002057 0.79880969628)
(0.000179151900343 0.000398144691715 0.798849442741)
(0.000206706742368 0.000395080681444 0.798782839944)
(0.000127053457443 0.000397764362459 0.798799401929)
(0.000144709421588 0.000394784657902 0.798769836065)
(8.13938774695e-05 0.000396686655522 0.798776564339)
(9.07950876443e-05 0.000394709683938 0.798763458236)
(3.89415418148e-05 0.00039580267164 0.798766009818)
(4.33457757337e-05 0.000394848833084 0.798760987826)
(-2.84467030418e-06 0.000395204748764 0.798761560855)
(0.000389329315319 0.00025203078103 0.798973270037)
(0.000411583794678 0.00041175932137 0.800225691732)
(0.000343798981469 0.000372354014662 0.800515254886)
(0.000342588070605 0.000401019148307 0.800249876185)
(0.000263754878464 0.000390757301183 0.800267257996)
(0.000262378823087 0.000393056836577 0.80016028695)
(0.000193807202487 0.000392262566917 0.800164078545)
(0.000192097608696 0.000389481293823 0.800120051613)
(0.00013663822397 0.000391501369241 0.800120877108)
(0.000132723853332 0.000388331317437 0.800101506107)
(8.79610727934e-05 0.000390503091718 0.800101433626)
(8.19867781599e-05 0.000388174950999 0.800092734924)
(4.41822581358e-05 0.000389636699193 0.80009247819)
(3.6876069958e-05 0.000388444216139 0.800089091252)
(2.44403964485e-06 0.000388947775491 0.800088915302)
(0.000353694015272 0.000318422617846 0.799215602304)
(0.000372159996477 0.000343981087222 0.800515272724)
(0.000335165807558 0.000335381230311 0.800723629063)
(0.000331709766295 0.00036445514788 0.800552423375)
(0.000268225850384 0.000360045782243 0.800551129343)
(0.000253619413299 0.000368169304264 0.80047298839)
(0.000199675420011 0.000367860784373 0.800464529008)
(0.00018453857842 0.000369017393301 0.800430573203)
(0.000141364126409 0.000370753697372 0.800424846199)
(0.000126862837236 0.000369501988669 0.800409882749)
(9.15901085958e-05 0.000371239705904 0.800406680711)
(7.75137583333e-05 0.000369909123273 0.8003998309)
(4.72206255109e-05 0.000371082220693 0.800398176435)
(3.33816792763e-05 0.000370317864941 0.800395463891)
(5.46257385636e-06 0.000370719206957 0.800394903638)
(0.000396543475575 0.000324935270255 0.798873787057)
(0.00040084063178 0.000342947798084 0.800249864174)
(0.000364245914238 0.000332061697008 0.800552405531)
(0.000350046822469 0.00035039440444 0.800398995323)
(0.000279223480188 0.000348067172107 0.800394570546)
(0.000259482057665 0.000355019977261 0.800316699283)
(0.000203622497856 0.000354681559342 0.800304990891)
(0.000185626874815 0.000355916730804 0.800271872142)
(0.000143038124429 0.000356854121229 0.800264920607)
(0.00012652016286 0.000356134487304 0.800250347644)
(9.2494364387e-05 0.000357299120389 0.800246563808)
(7.68566188886e-05 0.000356350623311 0.800239981857)
(4.78762179835e-05 0.000357189696418 0.800238077461)
(3.27278742044e-05 0.00035661790193 0.800235486725)
(6.07264099227e-06 0.00035690284735 0.800234856852)
(0.000393631382021 0.000241996168844 0.798962058452)
(0.000390574468687 0.00026411917916 0.800267293626)
(0.000359834705616 0.000268601404796 0.800551145487)
(0.00034771898337 0.000279600104994 0.800394605664)
(0.000276768479231 0.000277142322817 0.800396904886)
(0.000258741857821 0.000281879250209 0.800319668774)
(0.000202591752911 0.000281112701562 0.800309921157)
(0.000185527311489 0.000282662045113 0.800276963867)
(0.000142871028749 0.000283115035932 0.800270545948)
(0.000126504057645 0.000283107349279 0.800256007995)
(9.26482290614e-05 0.000283848296551 0.80025232483)
(7.68092860423e-05 0.000283437179901 0.800245790895)
(4.80844440744e-05 0.000284006625225 0.800243891574)
(3.26039140819e-05 0.000283711454295 0.800241336168)
(6.23591441886e-06 0.000283901770762 0.800240694527)
(0.000395357401618 0.0002743205995 0.798809657764)
(0.000392884801536 0.000262899068764 0.800160274263)
(0.000367965686178 0.000254118380779 0.800472975483)
(0.000354670592923 0.000259982391777 0.800316707455)
(0.000281501737126 0.000259238350637 0.800319634174)
(0.000263100195806 0.000263606490177 0.800238808029)
(0.000204914810465 0.00026344556461 0.800229571199)
(0.000187525231971 0.000265149929456 0.800195458358)
(0.000143826832688 0.000265567331723 0.800188988907)
(0.000127207453 0.000265904231095 0.800174026705)
(9.30096531987e-05 0.000266470357018 0.800170218963)
(7.69495607484e-05 0.000266339292374 0.800163507624)
(4.82472073465e-05 0.00026675600864 0.800161537852)
(3.25571882697e-05 0.000266596448909 0.80015897046)
(6.33465190142e-06 0.000266721304722 0.800158319549)
(0.000398131846276 0.000179668830312 0.798849499927)
(0.000392083291151 0.000194329917512 0.800164140243)
(0.000367655273075 0.000200197670759 0.800464572642)
(0.000354334185501 0.000204149468453 0.800305056788)
(0.000280745133953 0.000203112518022 0.800309943955)
(0.000262949079332 0.000205446769258 0.80022964265)
(0.000204345237754 0.000204862028822 0.80022103815)
(0.000187591303956 0.000206041343309 0.800187046404)
(0.000143647231422 0.000206092891323 0.800181022635)
(0.000127340442691 0.000206477667018 0.800166193173)
(9.30688157382e-05 0.000206776031817 0.800162619715)
(7.70584939071e-05 0.000206802061134 0.800156037349)
(4.83549529107e-05 0.000207055689452 0.800154149344)
(3.25670794276e-05 0.00020700412955 0.800151610473)
(6.3776233459e-06 0.000207074816813 0.800150949256)
(0.000395077780813 0.000207379292871 0.798782802143)
(0.000389310454128 0.000192745522698 0.800120047426)
(0.000368820524198 0.000185159904444 0.800430571968)
(0.000355566210704 0.00018625226027 0.800271898928)
(0.000282288371279 0.000186148216243 0.800276937207)
(0.000264638657772 0.00018816114531 0.80019547924)
(0.000205508953827 0.000188214866899 0.800186976168)
(0.000188775882608 0.000189420740681 0.800152576394)
(0.000144360425465 0.000189633835257 0.800146534715)
(0.000128006307972 0.000190132036734 0.800131548252)
(9.34839268843e-05 0.000190410515914 0.800127969519)
(7.73687046359e-05 0.000190555793932 0.800121335006)
(4.85676877681e-05 0.000190760200413 0.800119435284)
(3.26454300451e-05 0.000190782311637 0.800116881846)
(6.43339395697e-06 0.000190828005103 0.80011621057)
(0.000397759117774 0.000127703142326 0.798799486027)
(0.000391322469225 0.000137287793686 0.800120967941)
(0.00037055935673 0.000142005319388 0.800424912654)
(0.000356509908831 0.000143686348356 0.800265020987)
(0.000282757660699 0.000143513719174 0.800270595021)
(0.000265073479318 0.000144484127468 0.800189103573)
(0.000205584059025 0.000144290362811 0.800181048667)
(0.000189010021089 0.000145024232297 0.80014665676)
(0.000144385395057 0.000145026278592 0.800140832787)
(0.000128142539017 0.000145392882585 0.80012586991)
(9.35202921768e-05 0.000145520303788 0.800122377171)
(7.74296256386e-05 0.000145667173296 0.800115774321)
(4.85983450218e-05 0.000145780852203 0.800113895549)
(3.26443460237e-05 0.000145826702597 0.800111372931)
(6.43432241164e-06 0.000145842836276 0.800110686595)
(0.000394789735863 0.000145465360226 0.798769806961)
(0.000388161790139 0.000133457644478 0.80010151851)
(0.000369313834532 0.000127572659072 0.80040990006)
(0.000355785283544 0.000127235506181 0.800250401321)
(0.000282741777748 0.000127216420216 0.80025599695)
(0.000265393459796 0.000127935519059 0.800174077983)
(0.000205950846313 0.000128059436608 0.80016613245)
(0.000189484576625 0.000128747931811 0.800131581492)
(0.000144728997342 0.000128866940738 0.800125749985)
(0.000128502660875 0.000129251503398 0.800110713908)
(9.37626408847e-05 0.000129396255958 0.800107220983)
(7.7633350554e-05 0.000129579394115 0.800100593264)
(4.87312586189e-05 0.000129679800155 0.800098714038)
(3.27099729336e-05 0.000129750915293 0.800096187815)
(6.45864877693e-06 0.000129759134731 0.800095498006)
(0.000396689173491 8.21376227294e-05 0.798776673396)
(0.000390325660085 8.86979224844e-05 0.800101553283)
(0.000371054985516 9.23143657e-05 0.800406775484)
(0.000356960080047 9.32254677521e-05 0.800246701074)
(0.000283503478887 9.33774490283e-05 0.800252401895)
(0.000265983520782 9.3753298704e-05 0.800170377637)
(0.000206279339785 9.38051652509e-05 0.800162673601)
(0.000189791742918 9.42412671667e-05 0.800128145751)
(0.000144886530128 9.42627510333e-05 0.800122405559)
(0.000128671830908 9.45275999723e-05 0.800107403619)
(9.3849559759e-05 9.45933682674e-05 0.800103948822)
(7.77146436411e-05 9.47347274516e-05 0.800097356681)
(4.87713705239e-05 9.47858096345e-05 0.80009547921)
(3.27246224525e-05 9.4847196028e-05 0.800092985578)
(6.45120280776e-06 9.48414666906e-05 0.800092272076)
(0.000394722738628 9.15878502997e-05 0.79876344526)
(0.000388008256828 8.27616570696e-05 0.800092769849)
(0.000369731064489 7.82699727824e-05 0.800399872982)
(0.000356007219253 7.7617939065e-05 0.800240068062)
(0.000283084010758 7.75719389768e-05 0.800245803121)
(0.000265836023494 7.77249866129e-05 0.800163595837)
(0.000206287110238 7.78328709036e-05 0.800155996971)
(0.000189914069244 7.81619422318e-05 0.800121411889)
(0.00014501081397 7.82157570705e-05 0.800115671181)
(0.00012883187582 7.84389864943e-05 0.800100640859)
(9.39697690409e-05 7.85080491635e-05 0.800097186098)
(7.78260244182e-05 7.86367798469e-05 0.800090579212)
(4.8843973089e-05 7.86817348948e-05 0.80008870154)
(3.27657371778e-05 7.87401235617e-05 0.800086203864)
(6.46028150865e-06 7.87345200324e-05 0.800085489575)
(0.000395812406983 3.97343083564e-05 0.798766138132)
(0.000389463245063 4.49612799918e-05 0.800092621521)
(0.000370907994166 4.79848634158e-05 0.800398297622)
(0.000356859404692 4.8645325889e-05 0.800238247848)
(0.000283676450947 4.88574108596e-05 0.800243995648)
(0.000266281079057 4.90315791854e-05 0.800161735383)
(0.000206574437335 4.91425568844e-05 0.80015423086)
(0.000190152791808 4.93719259483e-05 0.800119658999)
(0.000145159370587 4.94011821644e-05 0.800113952771)
(0.000128962616899 4.95509560708e-05 0.800098951888)
(9.40471232503e-05 4.95857198653e-05 0.80009550895)
(7.78883339111e-05 4.96728328483e-05 0.80008893222)
(4.88746919081e-05 4.96936796712e-05 0.800087046352)
(3.27773493625e-05 4.97338621627e-05 0.800084576751)
(6.45067674553e-06 4.97243973533e-05 0.80008383762)
(0.000394868714181 4.41287925779e-05 0.79876099604)
(0.000388282966472 3.76462521793e-05 0.800089151094)
(0.000370150791147 3.4140161298e-05 0.800395533761)
(0.00035628525814 3.34895145957e-05 0.800235606317)
(0.000283374162464 3.33724227546e-05 0.80024137763)
(0.000266107570246 3.33331292552e-05 0.800159098785)
(0.000206506528288 3.33517737124e-05 0.800151601455)
(0.000190155433138 3.34411315445e-05 0.800117006618)
(0.000145185682666 3.34464991556e-05 0.800111303824)
(0.000129014866458 3.35223561064e-05 0.800096291548)
(9.40913975884e-05 3.354151341e-05 0.80009285128)
(7.79340132036e-05 3.3590151965e-05 0.80008626548)
(4.89050049561e-05 3.36029129293e-05 0.800084383273)
(3.2796427429e-05 3.36251526651e-05 0.800081908722)
(6.4540166325e-06 3.36194730515e-05 0.800081173787)
(0.000395220101638 -2.05042519379e-06 0.798761699959)
(0.000388780902587 3.21859270588e-06 0.800089073477)
(0.000370554842212 6.22181720848e-06 0.800395046135)
(0.000356584467663 6.83347576349e-06 0.800235051411)
(0.000283586504545 7.00685683723e-06 0.800240821605)
(0.000266262171693 7.11160428627e-06 0.800158544908)
(0.000206610814171 7.16889860515e-06 0.800151055345)
(0.00019023766624 7.23356224799e-06 0.800116465536)
(0.000145237899744 7.24830070862e-06 0.800110770507)
(0.000129056636542 7.28023352734e-06 0.800095771358)
(9.41148055382e-05 7.28575390513e-06 0.800092330609)
(7.79497964492e-05 7.29945835794e-06 0.800085758756)
(4.89097236551e-05 7.29969204232e-06 0.800083867685)
(3.27939104121e-05 7.30323276995e-06 0.800081406304)
(6.44449526128e-06 7.2984830597e-06 0.800080655254)
(0.000301868770409 0.000301836999183 0.794675320681)
(0.000215546413594 0.000361344169518 0.797895688905)
(0.000312202388736 0.000338008197773 0.798048438563)
(0.000308354667746 0.000369192368355 0.797884863909)
(0.000247323042764 0.000365779374317 0.797929482911)
(0.000273088855572 0.000371898517113 0.797816760006)
(0.000185173519125 0.000374026789079 0.797843101731)
(0.000209754024161 0.000373459529634 0.797775859111)
(0.000131701933696 0.000376056208283 0.797789678381)
(0.000147614156368 0.000374408767162 0.797751556307)
(8.44918040621e-05 0.000376332441846 0.797758158324)
(9.26138847914e-05 0.000375014350919 0.797737913728)
(4.06378149447e-05 0.000376133776252 0.797740655322)
(4.39630287973e-05 0.000375448276356 0.79773196179)
(-2.39852815374e-06 0.000375817343402 0.797732573918)
(0.000361366415295 0.000215744583406 0.797895676539)
(0.000289093409486 0.000289274493174 0.800356211228)
(0.000310373676221 0.00028455293891 0.800511195487)
(0.000310129102667 0.000303429521118 0.800401352951)
(0.000258038577067 0.000299141158438 0.800401174811)
(0.000258186444734 0.000302053691406 0.800323015521)
(0.000196966512516 0.000303300312864 0.800320920093)
(0.000194891161721 0.000301160722387 0.800274887047)
(0.000141053693149 0.000303944322791 0.800272938492)
(0.000136324456168 0.000301028603636 0.800246682417)
(9.14573817749e-05 0.000303537737897 0.800245037545)
(8.45386013402e-05 0.000301325930461 0.800230900387)
(4.61781567592e-05 0.000302927197456 0.800229766259)
(3.79114799481e-05 0.000301789660761 0.800223607316)
(2.82191688242e-06 0.000302321801322 0.800223124669)
(0.000338007951432 0.000312330836711 0.798048470693)
(0.000284349535886 0.000310523962549 0.800511222214)
(0.00029753734834 0.000297734367599 0.800670468171)
(0.000290426250887 0.000309843581646 0.800601237226)
(0.000252486994666 0.000308367654095 0.800586261367)
(0.000241371553421 0.000313118747741 0.800526342675)
(0.000196565085163 0.000314470948863 0.800511295106)
(0.000182921231587 0.000314454227915 0.800475676519)
(0.000142591998916 0.000316686805388 0.800466050811)
(0.000128110663073 0.000315228186158 0.80044573334)
(9.3544407829e-05 0.00031719853689 0.80043991775)
(7.89581326555e-05 0.000315820778612 0.800428935069)
(4.8553336347e-05 0.000317078990784 0.80042578621)
(3.40185939836e-05 0.000316314328764 0.800420969243)
(5.71074128407e-06 0.000316726325522 0.80041990966)
(0.000369200327472 0.000308741862053 0.797884858989)
(0.000303238815162 0.000310498730296 0.800401362305)
(0.000309649167522 0.000290791214721 0.800601231465)
(0.000299172260821 0.000299542061407 0.800541801566)
(0.000257597243698 0.000297849098634 0.800524898153)
(0.000244049397829 0.000302517722594 0.800465245633)
(0.000198792875887 0.000303192057864 0.800447438044)
(0.00018299684716 0.00030377664771 0.800412615142)
(0.000143735268302 0.000305175468286 0.800401501869)
(0.000127491424871 0.000304367441588 0.800382010337)
(9.42931523321e-05 0.000305734779314 0.80037540095)
(7.82291440783e-05 0.000304805338302 0.800364981564)
(4.91612071926e-05 0.000305715767199 0.800361445898)
(3.33471847795e-05 0.000305178275185 0.800356897067)
(6.30691755826e-06 0.000305460667455 0.80035572464)
(0.000365781506503 0.000247631135796 0.797929576461)
(0.000298945078455 0.000258378860281 0.800401251737)
(0.000308177216282 0.000252852840928 0.800586303429)
(0.000297485996162 0.000257975134683 0.800524943936)
(0.000255722533272 0.000256082431631 0.800509895323)
(0.000243248591722 0.000259596641276 0.800450064755)
(0.000197846903481 0.000259498939323 0.800432917305)
(0.000182614593359 0.000260582140386 0.800398134788)
(0.000143456310197 0.000261358751408 0.800387146561)
(0.00012726899028 0.000261272679892 0.800367801809)
(9.43301940997e-05 0.000262178490888 0.800361159438)
(7.80533798803e-05 0.000261787779314 0.800350866475)
(4.93040442791e-05 0.000262414242554 0.80034727852)
(3.31697548007e-05 0.000262145101315 0.800342800303)
(6.45886012222e-06 0.000262325304864 0.800341600651)
(0.000371912633474 0.000273632863566 0.797816788216)
(0.000301861342705 0.000258720415322 0.800323063933)
(0.000312931405074 0.000241889751276 0.800526375071)
(0.000302137010398 0.000244584136052 0.800465285207)
(0.000259218034809 0.000243764851051 0.800450054435)
(0.00024667718408 0.000247229447971 0.800388464404)
(0.000199676523028 0.000247494389239 0.800370952281)
(0.000184428240586 0.000248860181904 0.800335424701)
(0.000144432644646 0.000249457541368 0.800324268259)
(0.000128107667241 0.000249714655436 0.800304717098)
(9.48776256045e-05 0.000250360218596 0.800297979655)
(7.83687115267e-05 0.000250241214871 0.800287662145)
(4.9598424819e-05 0.00025067943613 0.800284018745)
(3.31953199542e-05 0.000250565748533 0.800279549019)
(6.58154974451e-06 0.000250665980557 0.800278327952)
(0.000374038285871 0.000185644043077 0.797843277915)
(0.000303101990774 0.000197472062141 0.800321071136)
(0.000314296463075 0.00019708705706 0.800511400767)
(0.000302829066732 0.000199335703427 0.800447549047)
(0.000259157328046 0.000198362155323 0.800432979421)
(0.000246978157432 0.000200225958169 0.800371032146)
(0.00019952244465 0.000200019943085 0.800354100212)
(0.000184609236638 0.000200959900156 0.800318472902)
(0.00014437516121 0.000201182827809 0.800307561066)
(0.000128199124511 0.000201483651291 0.80028800881)
(9.49081039113e-05 0.00020184324564 0.800281358128)
(7.83956910152e-05 0.000201870576698 0.800271074254)