/*--------------------------------*- C++ -*----------------------------------*\
| =========                 |                                                 |
| \\      /  F ield         | OpenFOAM: The Open Source CFD Toolbox           |
|  \\    /   O peration     | Version:  2406                                  |
|   \\  /    A nd           | Website:  www.openfoam.com                      |
|    \\/     M anipulation  |                                                 |
\*---------------------------------------------------------------------------*/
FoamFile
{
    version     2.0;
    format      ascii;
    arch        "LSB;label=32;scalar=64";
    class       volVectorField;
    location    "0.01";
    object      U_0;
}
// * * * * * * * * * * * * * * * * * * * * * * * * * * * * * * * * * * * * * //

dimensions      [0 1 -1 0 0 0 0];

internalField   nonuniform List<vector> 
29767
(
(0.00117716282328 0.00117716116343 0.796652892043)
(0.000926587864785 0.000556853087163 0.799146250375)
(0.000531604643593 0.000234599404223 0.799356336039)
(0.000658656387067 0.000500130681008 0.799055068831)
(0.000314525315122 0.000454202801578 0.799133562735)
(0.000419326528793 0.000496771807008 0.798997300988)
(0.000206933822858 0.000494353720887 0.799030305949)
(0.000266269759276 0.000497898832691 0.798969376368)
(0.000137880200132 0.000500788607574 0.798982631463)
(0.000168292113094 0.000498797053803 0.798955069235)
(8.53095390714e-05 0.000501278648181 0.798960111707)
(9.98363560155e-05 0.000499360000795 0.798947719056)
(3.99268804979e-05 0.000500808711235 0.798949477263)
(4.66720880671e-05 0.000499810539981 0.798944660308)
(-3.52059026282e-06 0.000500279427046 0.79894506227)
(0.00055684705993 0.000926756671619 0.799146241875)
(0.0012143208471 0.00121444688314 0.800185966858)
(0.000462263227011 0.000861120526384 0.800357137176)
(0.000540064281634 0.000954811574394 0.800196316166)
(0.000275880975837 0.000904091705353 0.800205746868)
(0.000294379178828 0.000918703343909 0.800144522572)
(0.000174517468314 0.00091125285109 0.800147327319)
(0.000180255293777 0.000909850385269 0.800121324487)
(0.000112864338755 0.000910848946408 0.80012195575)
(0.000113405255161 0.000907518252455 0.800110111467)
(6.91766113486e-05 0.000909592666223 0.800109992718)
(6.68070977401e-05 0.000907065007736 0.800104558513)
(3.36386570419e-05 0.000908523990619 0.800104325375)
(2.97507929931e-05 0.000907245318826 0.800102173098)
(1.16211488995e-06 0.000907746533473 0.800102067326)
(0.000234578926452 0.000531746301878 0.799356333134)
(0.00086098186601 0.00046237989772 0.800357132061)
(0.000389888852964 0.000390030235879 0.800539584263)
(0.000452505779366 0.000462311392814 0.800398449874)
(0.000266778061331 0.000438317529912 0.800392453565)
(0.000267823457874 0.000454460697713 0.800344646541)
(0.000177946847462 0.000449479979108 0.800340524428)
(0.000169240599736 0.000451895860744 0.800320687648)
(0.000117440227431 0.000452306893475 0.80031807254)
(0.000107555920649 0.000451418778752 0.800308843605)
(7.28976624538e-05 0.000452849886326 0.80030712698)
(6.31338698767e-05 0.000451521752499 0.800302902522)
(3.65665027184e-05 0.000452589916101 0.800301965359)
(2.69834895014e-05 0.000451801874199 0.800300288374)
(3.73167599975e-06 0.000452174710424 0.800299985547)
(0.000500113598628 0.000658984898127 0.799055067243)
(0.000954681303364 0.000540312390728 0.800196311095)
(0.00046217169658 0.00045275205438 0.800398446931)
(0.000489883170278 0.000490129307901 0.800240448577)
(0.000286042930014 0.000477041210861 0.800231752592)
(0.00027903662297 0.000490588096483 0.800179406885)
(0.000184002753606 0.00048696592513 0.800174508841)
(0.00017195358097 0.000489719170175 0.800153710129)
(0.000119740448769 0.000489657460134 0.800150330122)
(0.000107799956104 0.00048928287401 0.800141333121)
(7.40160141525e-05 0.000490123145318 0.800139256166)
(6.27854213462e-05 0.000489236299701 0.800135241198)
(3.7266476815e-05 0.000489952801989 0.80013413803)
(2.65046858777e-05 0.000489395962328 0.800132564676)
(4.26967119153e-06 0.000489649028503 0.800132215135)
(0.000454181591675 0.000314823636038 0.799133579089)
(0.000903956830415 0.000276124131935 0.800205748846)
(0.000438176603467 0.00026703424362 0.800392455659)
(0.000476795404823 0.000286304371129 0.8002317565)
(0.000275471195841 0.000275727196041 0.800225314733)
(0.000275164645719 0.000283097927403 0.800173340535)
(0.000180011339515 0.00027941695858 0.800169758557)
(0.000170585150994 0.000281812292985 0.800149228621)
(0.000118340875875 0.000281265294538 0.800146255035)
(0.000107193750591 0.000281570036368 0.80013742627)
(7.3578674017e-05 0.000281980439894 0.800135455305)
(6.24256044357e-05 0.000281661653987 0.800131533537)
(3.71987460246e-05 0.000282109592601 0.800130445658)
(2.62750760798e-05 0.000281837384042 0.800128910844)
(4.37055569511e-06 0.00028199832389 0.800128561571)
(0.000496755530605 0.000419793378609 0.798997319591)
(0.000918575714429 0.000294738788022 0.80014452884)
(0.000454325334916 0.00026817554889 0.800344653139)
(0.000490339480587 0.000279393645406 0.800179415668)
(0.000282837054885 0.000275515677779 0.800173346842)
(0.00028208644324 0.000282449597514 0.800119940113)
(0.000182982916961 0.000281015195488 0.80011579922)
(0.000173523962369 0.000283582423298 0.800094688613)
(0.000119589923069 0.000283388623104 0.800091688554)
(0.000108340455701 0.000283955684133 0.800082770766)
(7.41800767079e-05 0.000284245670178 0.800080869336)
(6.28344301351e-05 0.000284159048794 0.800077013952)
(3.75119210473e-05 0.000284466317049 0.800075964303)
(2.63406499331e-05 0.00028433193913 0.800074429947)
(4.48903329288e-06 0.000284434943005 0.800074076449)
(0.000494335584682 0.000207372193576 0.79903034981)
(0.000911119387612 0.000174871426971 0.800147344018)
(0.000449347673835 0.0001783086496 0.800340537281)
(0.000486721193582 0.000184374105385 0.800174525974)
(0.000279167673968 0.00018037304055 0.800169772643)
(0.000280664287183 0.000183356552883 0.80011580544)
(0.000181085419392 0.000181441553794 0.800112919753)
(0.000172987663693 0.000182913476723 0.800091653764)
(0.000118773726582 0.000182415836029 0.800088933954)
(0.000108103356188 0.000182913517494 0.800079875208)
(7.38435873403e-05 0.000182991802176 0.800077958144)
(6.26697320184e-05 0.000183064410391 0.80007397526)
(3.73836032443e-05 0.000183238092572 0.800072895145)
(2.62323276414e-05 0.000183209204728 0.800071352287)
(4.48752244717e-06 0.000183261121242 0.800071005683)
(0.000497886096286 0.000266843738199 0.798969421257)
(0.000909723166584 0.000180701429171 0.800121346605)
(0.000451766232013 0.000169680241088 0.800320709061)
(0.000489468110465 0.000172402624921 0.800153733013)
(0.000281554802283 0.000171024409192 0.800149250208)
(0.000283214713358 0.000173980145064 0.800094702122)
(0.000182540236698 0.000173427909891 0.80009166366)
(0.000174478935458 0.000174941998908 0.800070041563)
(0.000119515105515 0.000174863871323 0.800067315332)
(0.000108809806085 0.000175469811809 0.800058128524)
(7.41971888698e-05 0.00017559863313 0.80005620758)
(6.2948850083e-05 0.000175770899914 0.800052190062)
(3.75498641354e-05 0.000175905589864 0.80005111268)
(2.62985097307e-05 0.000175938507223 0.800049561918)
(4.53454201321e-06 0.000175967213345 0.800049217154)
(0.000500773787532 0.000138433654559 0.798982708124)
(0.000910714593638 0.000113307809678 0.800121991777)
(0.000452179425155 0.000117889598606 0.800318106231)
(0.000489413424388 0.000120200570098 0.80015036285)
(0.000281024412881 0.000118790135078 0.800146286071)
(0.000283038870198 0.000120055198987 0.800091709277)
(0.000182067514205 0.000119220561329 0.800088951033)
(0.000174423851971 0.000119983454427 0.800067319215)
(0.000119280570924 0.000119722671253 0.800064714021)
(0.000108816503677 0.000120112276373 0.80005552012)
(7.41214586118e-05 0.00012011294632 0.800053641778)
(6.29580079009e-05 0.000120266251532 0.80004961652)
(3.75369810865e-05 0.000120322773322 0.800048550534)
(2.62856247069e-05 0.000120373405389 0.800046993698)
(4.52930317495e-06 0.00012037559641 0.800046651948)
(0.00049878894896 0.000168938489429 0.798955145964)
(0.000907390514324 0.000113911302284 0.80011015251)
(0.000451296001144 0.00010805828533 0.800308883469)
(0.000489031136975 0.000108312244777 0.800141372599)
(0.000281318883508 0.000107697134378 0.800137466138)
(0.000283585552294 0.000108861951871 0.800082800745)
(0.000182544229384 0.000108610044228 0.800079904372)
(0.000175002330155 0.00010933994214 0.800058144853)
(0.000119643995813 0.000109325386235 0.800055536782)
(0.000109198222095 0.000109735308322 0.800046284176)
(7.43477816532e-05 0.000109799995908 0.800044403494)
(6.31554614696e-05 0.000109987219359 0.800040353298)
(3.76538831739e-05 0.000110045231581 0.800039285506)
(2.63493011301e-05 0.00011011937505 0.800037718263)
(4.55212889569e-06 0.000110116482863 0.800037376523)
(0.000501268123775 8.59462002062e-05 0.7989602243)
(0.000909458511139 6.96831535069e-05 0.800110049224)
(0.000452730953387 7.34086414484e-05 0.800307179641)
(0.000489881588011 7.45371984858e-05 0.800139306319)
(0.000281749852067 7.40917228383e-05 0.800135505524)
(0.000283898985225 7.47097475902e-05 0.800080907685)
(0.000182653479971 7.43590720755e-05 0.800077994863)
(0.000175161142561 7.47336191128e-05 0.800056227686)
(0.00011967789252 7.46378897177e-05 0.800053661998)
(0.000109291135345 7.48895015427e-05 0.800044402106)
(7.43723820894e-05 7.4887623075e-05 0.800042541335)
(6.32021334103e-05 7.50213454948e-05 0.800038485904)
(3.76679755409e-05 7.50372916455e-05 0.800037426491)
(2.63561246654e-05 7.50981643831e-05 0.800035854972)
(4.54301261057e-06 7.50832516988e-05 0.800035516934)
(0.000499356317429 0.000100516001408 0.798947830559)
(0.000906938261945 6.73416246089e-05 0.800104619879)
(0.000451407204237 6.36696057833e-05 0.800302961513)
(0.000488986907838 6.33297923932e-05 0.800135298668)
(0.000281419646307 6.29648255375e-05 0.800131593126)
(0.00028379111455 6.33890125808e-05 0.800077062898)
(0.000182703638107 6.32150115647e-05 0.800074025272)
(0.000175304704478 6.35125392072e-05 0.800052224476)
(0.000119803340702 6.35089531535e-05 0.800049655605)
(0.000109448966921 6.3728260375e-05 0.800040371478)
(7.44796257724e-05 6.37569067095e-05 0.800038510956)
(6.33049323761e-05 6.38820308515e-05 0.800034444506)
(3.77304802781e-05 6.39032690997e-05 0.800033386078)
(2.63951430522e-05 6.39625855002e-05 0.80003180939)
(4.55272942338e-06 6.39504174442e-05 0.800031472428)
(0.000500801680845 4.060907077e-05 0.798949626477)
(0.000908391836813 3.41775425883e-05 0.800104402979)
(0.000452479292113 3.71092245995e-05 0.800302037526)
(0.000489715967654 3.7817021705e-05 0.800134206625)
(0.000281889585744 3.77467430029e-05 0.80013051578)
(0.000284125715364 3.80733041626e-05 0.800076021876)
(0.000182911148965 3.79396316632e-05 0.800072952869)
(0.000175474117211 3.81213042095e-05 0.800051151299)
(0.000119896916747 3.81012320936e-05 0.80004859306)
(0.000109540224875 3.82361152111e-05 0.800039302475)
(7.4526346865e-05 3.82387704405e-05 0.80003744964)
(6.33484907484e-05 3.83192616024e-05 0.800033379006)
(3.77485300409e-05 3.83220025154e-05 0.800032325146)
(2.64032976761e-05 3.83623317561e-05 0.800030744905)
(4.54387536836e-06 3.83476984124e-05 0.8000304108)
(0.000499809960717 4.73461296617e-05 0.798944806956)
(0.000907121808423 3.02826304177e-05 0.800102254863)
(0.000451695636621 2.75221069924e-05 0.800300366364)
(0.000489152980267 2.70489267423e-05 0.800132640348)
(0.000281606470003 2.68198213176e-05 0.80012898971)
(0.00028397248182 2.68941837474e-05 0.80007449709)
(0.000182860879122 2.6785785024e-05 0.800071422884)
(0.000175480882865 2.68605935995e-05 0.800049615128)
(0.000119921383702 2.68483104938e-05 0.800047054743)
(0.000109587699437 2.69214304202e-05 0.8000377554)
(7.45629940942e-05 2.69268560327e-05 0.800035903096)
(6.33881566106e-05 2.69744412539e-05 0.800031828445)
(3.77735471632e-05 2.69787366916e-05 0.80003077555)
(2.64208528551e-05 2.70024954552e-05 0.80002919313)
(4.54826893154e-06 2.69947735011e-05 0.800028859851)
(0.000500274014552 -2.83299360936e-06 0.798945246117)
(0.000907618544591 1.7012929515e-06 0.800102165323)
(0.000452071033534 4.27466135381e-06 0.800300076383)
(0.000489419335397 4.81664365136e-06 0.80013230192)
(0.000281787834729 4.92172429295e-06 0.8001286507)
(0.000284103584655 5.04711761671e-06 0.800074152535)
(0.000182945096256 5.05186960166e-06 0.800071084021)
(0.000175545319228 5.10467529806e-06 0.800049275759)
(0.000119959896034 5.10843141489e-06 0.800046716839)
(0.000109619562569 5.13693058554e-06 0.800037414513)
(7.45794801235e-05 5.13609697232e-06 0.800035564041)
(6.34003418179e-05 5.14988690879e-06 0.800031487309)
(3.77765662403e-05 5.14686318912e-06 0.800030435776)
(2.64193333296e-05 5.15257537104e-06 0.80002885162)
(4.54048622477e-06 5.14681263848e-06 0.800028519371)
(0.00034752577573 0.000347518256192 0.796368161812)
(0.000250252888305 0.000387481270317 0.798977168655)
(0.000316478193207 0.000352062697706 0.799218402583)
(0.000322804282392 0.000394669429866 0.798878022351)
(0.000240307974334 0.00039177878592 0.798966041035)
(0.000272384347241 0.0003935073611 0.798814332329)
(0.000178180118452 0.000396276826161 0.798853959873)
(0.000205672903305 0.000393231494648 0.798787632705)
(0.000126382098773 0.000395906226707 0.798804138209)
(0.000143985512204 0.000392943761824 0.798774696766)
(8.09763703205e-05 0.000394838615582 0.798781398845)
(9.03372717452e-05 0.000392873265725 0.79876834858)
(3.87504737965e-05 0.00039396168997 0.798770889097)
(4.31234896895e-05 0.000393013590057 0.798765888447)
(-2.82008525869e-06 0.000393367890203 0.798766459238)
(0.000387478000543 0.000250438473624 0.798977150997)
(0.000409202677377 0.000409377106871 0.800224541899)
(0.000341869485926 0.00037020859758 0.800513539961)
(0.000340857485943 0.000398711838743 0.800248516456)
(0.000262294319815 0.000388489102588 0.800266192217)
(0.000261129019425 0.000390758304949 0.800159454368)
(0.000192761902248 0.000389979857092 0.800163378405)
(0.000191203197567 0.000387197743921 0.800119456949)
(0.000135917270445 0.000389220794356 0.800120335896)
(0.000132113933778 0.000386055378184 0.800101014379)
(8.75034712725e-05 0.000388226017104 0.800100964156)
(8.16149432018e-05 0.000385902811828 0.800092288879)
(4.39507891353e-05 0.000387362555333 0.800092041544)
(3.67171040153e-05 0.000386173119402 0.800088663913)
(2.41994892032e-06 0.000386675787792 0.800088491122)
(0.000352043602162 0.000316646611064 0.799218413656)
(0.000370015920798 0.000342050737315 0.800513557626)
(0.000333264447598 0.000333478572231 0.800721573794)
(0.000329996836545 0.000362394043809 0.800550516037)
(0.000266760053466 0.000357965113094 0.800549454108)
(0.000252386051559 0.000366037637187 0.800471505283)
(0.000198624818739 0.000365733914716 0.800463177976)
(0.000183675436792 0.000366868185152 0.800429332886)
(0.00014064093051 0.00036860199657 0.800423675951)
(0.000126280850813 0.000367349272093 0.800408754864)
(9.1127858853e-05 0.00036908562307 0.800405584053)
(7.7165052107e-05 0.000367757151624 0.800398753902)
(4.69807672606e-05 0.000368928964229 0.800397113396)
(3.324060136e-05 0.000368166310175 0.800394408677)
(5.42542834277e-06 0.000368567077727 0.800393852772)
(0.000394656408077 0.000323185060905 0.798877991947)
(0.000398534446438 0.000341215032049 0.80024850462)
(0.000362186028238 0.000330346636916 0.800550498344)
(0.000348252203859 0.000348597763243 0.80039708122)
(0.000277710619001 0.00034624925374 0.800392873892)
(0.00025822912498 0.000353161031808 0.800315166792)
(0.000202564475333 0.000352820981571 0.800303609445)
(0.000184763696909 0.00035404016191 0.800270581882)
(0.00014231478295 0.000354977581497 0.800263701852)
(0.000125942648012 0.000354255207471 0.800249170239)
(9.20332400848e-05 0.000355419076396 0.800245419207)
(7.65132090357e-05 0.000354470945505 0.800238856237)
(4.76362361036e-05 0.000355308709355 0.800236966307)
(3.25905922884e-05 0.00035473767448 0.800234383034)
(6.03347413469e-06 0.000355022119453 0.80023375761)
(0.000391761847111 0.000240660271207 0.798966072608)
(0.000388307451494 0.00026265663262 0.800266227471)
(0.000357755327921 0.000267133423717 0.800549470086)
(0.000345903144434 0.000278085096219 0.800392908716)
(0.000275238312902 0.000275609951184 0.800395395382)
(0.000257475517578 0.000280313602062 0.800318323358)
(0.00020152587501 0.000279541986985 0.800308726666)
(0.000184654420147 0.000281075258266 0.800275862208)
(0.000142142052576 0.000281526126113 0.800269515681)
(0.000125921700531 0.000281513378832 0.800255021044)
(9.21826946917e-05 0.000282253103803 0.800251371448)
(7.64624912328e-05 0.000281842200844 0.80024485774)
(4.78415603668e-05 0.000282411485139 0.800242973378)
(3.24656820258e-05 0.00028211719655 0.800240425553)
(6.19598452354e-06 0.000282307294255 0.80023978847)
(0.000393497804998 0.000272927002227 0.798814294355)
(0.000390587285508 0.000261646123069 0.800159441877)
(0.000365835192994 0.000252882092259 0.800471492471)
(0.000352813646872 0.00025872660491 0.800315174895)
(0.000279938251399 0.000257969099117 0.800318289037)
(0.000261814404188 0.000262317806236 0.800237621612)
(0.0002038326475 0.000262149423174 0.800228539548)
(0.000186641504204 0.000263844630471 0.80019451151)
(0.000143090666276 0.000264259078918 0.800188116439)
(0.000126619185915 0.000264592719719 0.800173193652)
(9.25415589436e-05 0.000265157769511 0.800169417919)
(7.66033198833e-05 0.000265025244025 0.800162730639)
(4.80060563769e-05 0.000265439454651 0.80016078543)
(3.24207956392e-05 0.000265278695867 0.800158232926)
(6.29496442585e-06 0.000265402798456 0.800157589218)
(0.000396264102724 0.000178694089114 0.798854016309)
(0.00038980170346 0.00019328162153 0.800163439422)
(0.000365529594666 0.000199144009948 0.800463221311)
(0.000352475653737 0.000203088410077 0.800303674777)
(0.000279176604865 0.000202043556416 0.800308749243)
(0.000261655852998 0.000204361523174 0.800228610394)
(0.000203261485295 0.000203775169323 0.800220159046)
(0.000186703638746 0.000204946939393 0.800186261214)
(0.000142910471196 0.000204996093386 0.800180308561)
(0.000126751195084 0.000205377006006 0.800165523048)
(9.26004038577e-05 0.000205673286259 0.800161982868)
(7.6710480141e-05 0.000205696316349 0.800155421116)
(4.81120344102e-05 0.000205947930783 0.800153548405)
(3.24292050748e-05 0.000205895313975 0.800151017385)
(6.33764402567e-06 0.000205965518912 0.80015036095)
(0.000393228613275 0.000206341106399 0.798787595446)
(0.00038702786894 0.000191847243322 0.800119452872)
(0.000366672444666 0.000184293093811 0.800429331627)
(0.000353691607146 0.000185385473482 0.800270608431)
(0.000280703721863 0.000185271679272 0.800275835741)
(0.000263336240539 0.000187273755677 0.800194532214)
(0.000204417631733 0.000187323529631 0.800186191557)
(0.000187882572325 0.000188523776053 0.80015188702)
(0.000143619821826 0.000188733977441 0.800145916353)
(0.000127414408883 0.000189229070188 0.800130974013)
(9.30137310359e-05 0.000189505907301 0.800127427989)
(7.70189574845e-05 0.000189649578908 0.800120813027)
(4.83232394538e-05 0.000189852657983 0.80011892772)
(3.25067265737e-05 0.000189874060151 0.800116381661)
(6.39313546117e-06 0.000189919327108 0.800115714994)
(0.00039590109569 0.00012702787278 0.798804221239)
(0.000389042971406 0.000136563012112 0.800120425753)
(0.000368408864274 0.000141278328301 0.800423741753)
(0.000354635391814 0.000142959226344 0.800263801358)
(0.000281170917626 0.000142780906542 0.800269564294)
(0.000263768127351 0.000143744094991 0.800188230124)
(0.000204490358928 0.000143549714288 0.800180334352)
(0.000188113835717 0.000144279740142 0.800146037371)
(0.000143642694532 0.000144279657564 0.800140283852)
(0.000127548255645 0.00014464366297 0.800125364956)
(9.30482432761e-05 0.000144769488505 0.800121904825)
(7.70781847106e-05 0.000144914688497 0.800115321726)
(4.83529729028e-05 0.000145027290653 0.800113457764)
(3.25050717691e-05 0.000145072519312 0.800110942652)
(6.39406073794e-06 0.000145088312166 0.800110261238)
(0.000392948825514 0.000144736639481 0.7987746681)
(0.000385886767622 0.000132843333222 0.800101026713)
(0.000367162196913 0.000126986479414 0.800408771964)
(0.000353907922847 0.000126653842444 0.800249223441)
(0.000281149895622 0.000126629862208 0.800255010038)
(0.00026408478908 0.000127343017007 0.800173244472)
(0.000204853231702 0.000127465934425 0.8001654628)
(0.000188585233202 0.00012815178213 0.800131006959)
(0.000143983666611 0.000128268366136 0.800125246012)
(0.000127906457005 0.000128651047422 0.80011025434)
(9.32890981238e-05 0.00012879433878 0.800106794085)
(7.72807913065e-05 0.000128976335679 0.800100186187)
(4.84850828573e-05 0.00012907583103 0.800098321727)
(3.25702925025e-05 0.000129146513083 0.800095803016)
(6.4182722367e-06 0.000129154446077 0.800095118101)
(0.000394841224818 8.17154847475e-05 0.798781506549)
(0.00038804962941 8.82358877858e-05 0.800101082539)
(0.000368902071859 9.18477810661e-05 0.800405677915)
(0.000355082018256 9.27600271882e-05 0.800245555281)
(0.000281910413447 9.29075249647e-05 0.800251447804)
(0.000264673798477 9.32807791738e-05 0.800169575211)
(0.000205179648755 9.33322878804e-05 0.800162036265)
(0.000188890772442 9.3766579999e-05 0.800127602741)
(0.000144139634435 9.37861455386e-05 0.800121932963)
(0.000128074205014 9.40495132598e-05 0.800106975224)
(9.33749141609e-05 9.41141127025e-05 0.80010355309)
(7.7361151419e-05 9.42544937991e-05 0.800096980578)
(4.85246593842e-05 9.43048723267e-05 0.800095118031)
(3.2584630246e-05 9.43658978211e-05 0.800092631721)
(6.41087111841e-06 9.43599432602e-05 0.800091923362)
(0.000392886271963 9.11250343905e-05 0.798768335837)
(0.000385736984938 8.23851625496e-05 0.800092323481)
(0.000367580118157 7.79167681392e-05 0.800398795531)
(0.000354129388456 7.72700599682e-05 0.800238941674)
(0.0002814910656 7.7220604518e-05 0.800244869785)
(0.000264524715002 7.73742007061e-05 0.800162818178)
(0.00020518431199 7.74802508305e-05 0.800155381019)
(0.000189011390961 7.78075633907e-05 0.800120889233)
(0.000144262166258 7.78596133715e-05 0.800115219391)
(0.000128233016322 7.80817462888e-05 0.800100233369)
(9.34940795025e-05 7.81498012814e-05 0.800096811347)
(7.74717800251e-05 7.82778524866e-05 0.800090224146)
(4.85967292363e-05 7.83222292915e-05 0.800088361372)
(3.26254670729e-05 7.83803829602e-05 0.800085871065)
(6.41988183313e-06 7.8374602494e-05 0.800085161866)
(0.000393971486603 3.95381671726e-05 0.798771015843)
(0.000387190099005 4.47250327224e-05 0.800092183354)
(0.000368755857592 4.77403783993e-05 0.800397233425)
(0.000354980327464 4.84007310624e-05 0.800237135213)
(0.000282083386909 4.86098368253e-05 0.800243076492)
(0.000264967270798 4.87857155003e-05 0.800160981404)
(0.000205469643786 4.88948386195e-05 0.800153629193)
(0.000189248798637 4.91226280761e-05 0.800119149558)
(0.000144409679937 4.9150868468e-05 0.800113514484)
(0.000128362886209 4.92998308588e-05 0.800098557634)
(9.35707941469e-05 4.93339616771e-05 0.800095147514)
(7.75335840602e-05 4.94205785255e-05 0.800088590226)
(4.86271657281e-05 4.9441053006e-05 0.80008671941)
(3.26369433798e-05 4.94810726773e-05 0.80008425696)
(6.41034263983e-06 4.94714936844e-05 0.800083523162)
(0.000393033388656 4.39015625219e-05 0.798765896611)
(0.000386012677265 3.74825893642e-05 0.800088723141)
(0.000368000190664 3.39945026049e-05 0.800394477822)
(0.000354406781126 3.33476621488e-05 0.800234501549)
(0.000281781838697 3.3229545807e-05 0.800240466545)
(0.000264792398701 3.31920806888e-05 0.800158360328)
(0.000205400549028 3.32091392777e-05 0.800151008348)
(0.000189250585243 3.32976375361e-05 0.80011650533)
(0.000144435236966 3.33023388192e-05 0.800110874026)
(0.00012841455766 3.33777899528e-05 0.800095905852)
(9.36145826607e-05 3.33965343899e-05 0.80009249843)
(7.75789022491e-05 3.34449284122e-05 0.800085932157)
(4.86572259614e-05 3.3457460785e-05 0.800084064949)
(3.26558799561e-05 3.34796326667e-05 0.800081597628)
(6.41364553413e-06 3.34738901143e-05 0.800080867935)
(0.000393383269819 -2.03109600758e-06 0.798766596652)
(0.000386509850894 3.18961529276e-06 0.800088647613)
(0.000368403768083 6.17997738824e-06 0.800393993909)
(0.000354705559224 6.78963499455e-06 0.800233950465)
(0.000281994001003 6.96217195443e-06 0.800239914368)
(0.000264946304177 7.06713895612e-06 0.800157812706)
(0.000205504393559 7.12402654739e-06 0.800150466081)
(0.000189332420137 7.18836469211e-06 0.800115967813)
(0.00014448715141 7.20299181373e-06 0.800110344407)
(0.000128456085431 7.23478408152e-06 0.800095389222)
(9.36378227372e-05 7.24024117774e-06 0.800091981386)
(7.75945754065e-05 7.25387561804e-06 0.800085428918)
(4.86619014122e-05 7.2540825812e-06 0.800083552965)
(3.26533736358e-05 7.25761654561e-06 0.800081098682)
(6.40419078013e-06 7.25287019819e-06 0.800080353045)
(0.000300387104544 0.000300356041265 0.79470087177)
(0.000214244015865 0.000359778212037 0.797904851568)
(0.000310444983404 0.000336490275384 0.798056479903)
(0.000306706437491 0.000367582344721 0.797893676404)
(0.000245895512666 0.000364166657327 0.797938151941)
(0.00027166454775 0.000370275239224 0.797825958569)
(0.000184116986398 0.000372389418804 0.797852215951)
(0.000208659414944 0.000371829049981 0.797785285902)
(0.000130966944652 0.000374413431217 0.79779905534)
(0.000146839313474 0.000372775062508 0.797761114566)
(8.40327409109e-05 0.000374689546276 0.797767688241)
(9.21233823733e-05 0.000373378497943 0.797747543018)
(4.04252174592e-05 0.000374492235422 0.797750270575)
(4.37269422044e-05 0.000373810584138 0.797741620963)
(-2.3768777102e-06 0.000374177598885 0.797742229313)
(0.000359799910994 0.000214440469558 0.797904839272)
(0.000287466906658 0.000287646615747 0.800355466177)
(0.000308708177986 0.000282894719306 0.800509484217)
(0.000308585157366 0.000301669350027 0.800399833493)
(0.000256605541295 0.000297403972237 0.800399843994)
(0.000256925925886 0.000300276585993 0.800321934468)
(0.000195868644702 0.000301532371461 0.800319968036)
(0.000193941106317 0.000299380629479 0.800274085551)
(0.000140271952282 0.000302163079302 0.800272207905)
(0.000135659540012 0.000299248346207 0.80024603982)
(9.09531118202e-05 0.000301754392979 0.800244432074)
(8.41288099134e-05 0.000299546408741 0.800230344306)
(4.59208003743e-05 0.000301144608017 0.800229228144)
(3.77361869162e-05 0.000300009702562 0.800223091734)
(2.79433066574e-06 0.000300540679194 0.800222614527)
(0.000336489907943 0.000310573253399 0.798056511925)
(0.000282693003288 0.000308857892811 0.800509510937)
(0.000295918294811 0.000296114032424 0.800667874952)
(0.000288925148233 0.000308159040837 0.800598631758)
(0.000251106001949 0.000306675917843 0.800583839354)
(0.000240167734821 0.000311388705595 0.800524109686)
(0.000195496963538 0.000312736911401 0.800509229677)
(0.000182017186918 0.000312706224225 0.800473730637)
(0.000141823354207 0.000314935530876 0.800464201012)
(0.000127482865935 0.000313474082276 0.800443952412)
(9.30420803843e-05 0.000315441340752 0.80043818871)
(7.85762548625e-05 0.000314064067884 0.800427244214)
(4.82899384293e-05 0.000315319789887 0.800424120997)
(3.38631387491e-05 0.000314556007741 0.800419321392)
(5.67023259285e-06 0.000314967136483 0.800418269594)
(0.000367590034306 0.000307090533212 0.797893671581)
(0.000301480075374 0.000308952101324 0.80039984283)
(0.00030796582507 0.000289287516365 0.800598625932)
(0.000297645337473 0.000298012589171 0.800539107744)
(0.000256205040635 0.000296314430427 0.800522374062)
(0.000242845223992 0.00030095567779 0.800462905044)
(0.00019772793669 0.000301624115835 0.800445272407)
(0.000182101779919 0.000302197863962 0.800410567502)
(0.000142970413186 0.000303593624337 0.80039955339)
(0.000126871020985 0.000302782089691 0.800380128324)
(9.37922407095e-05 0.000304146919788 0.800373572293)
(7.78523498079e-05 0.000303217263169 0.800363188752)
(4.88970765409e-05 0.00030412589801 0.800359679311)
(3.31953764666e-05 0.000303588793517 0.800355146632)
(6.26421192341e-06 0.000303870686687 0.800353982131)
(0.000364168690622 0.0002462021392 0.797938245087)
(0.000297209418493 0.000256943841067 0.800399920765)
(0.000306486732046 0.000251469486876 0.800583881279)
(0.000295953876835 0.000256580510176 0.80052241981)
(0.000254325486644 0.000254683041679 0.80050753158)
(0.000242037705531 0.000258175894893 0.800447886839)
(0.000196777365748 0.000258071917618 0.800430913782)
(0.00018171471087 0.000259144053311 0.800396251913)
(0.000142688519356 0.000259916375868 0.800385363253)
(0.00012664620454 0.000259825746503 0.800366085508)
(9.38279202926e-05 0.000260728798727 0.800359496838)
(7.76763681926e-05 0.000260335596312 0.800349240173)
(4.90392293815e-05 0.000260959324559 0.800345678894)
(3.30183177607e-05 0.000260688936484 0.800341217057)
(6.41570307448e-06 0.000260868453065 0.800340025429)
(0.00037028905256 0.000272204420887 0.797825986748)
(0.000300085631068 0.000257456089789 0.800321982674)
(0.000311202498683 0.000240682373487 0.80052414181)
(0.000300577581647 0.00024337635087 0.800462944426)
(0.000257799720864 0.000242550459235 0.800447876338)
(0.000245451726219 0.000246000252761 0.800386480663)
(0.000198598979266 0.00024625826594 0.800369144912)
(0.000183523186489 0.000247615322972 0.80033374194)
(0.000143661258845 0.000248208520679 0.800322685807)
(0.000127482745307 0.000248461297745 0.800303203375)
(9.43722328409e-05 0.000249104386722 0.80029651965)
(7.79881793546e-05 0.000248983503108 0.800286237984)
(4.9330352254e-05 0.000249420383815 0.800282620449)
(3.30423798747e-05 0.000249306053058 0.800278166574)
(6.53772772025e-06 0.000249406164332 0.800276953277)
(0.000372400772108 0.000184584799797 0.797852391327)
(0.000301335512671 0.000196370964425 0.800320118659)
(0.000312563547063 0.000196015502038 0.800509334924)
(0.000301263672748 0.000198267199386 0.800445383137)
(0.000257732515548 0.000197289221237 0.800430975634)
(0.000245745546477 0.000199144793853 0.800369224733)
(0.00019843724351 0.000198931466426 0.800352469132)
(0.000183697819512 0.000199863320659 0.800316968286)
(0.000143599683539 0.000200082633886 0.8003061564)
(0.000127570454309 0.000200378750873 0.80028667353)
(9.4401899232e-05 0.000200736238928 0.800280076466)
(7.80159353666e-05 0.00020076242291 0.80026982928)