/*--------------------------------*- C++ -*----------------------------------*\
| =========                 |                                                 |
| \\      /  F ield         | OpenFOAM: The Open Source CFD Toolbox           |
|  \\    /   O peration     | Version:  2406                                  |
|   \\  /    A nd           | Website:  www.openfoam.com                      |
|    \\/     M anipulation  |                                                 |
\*---------------------------------------------------------------------------*/
FoamFile
{
    version     2.0;
    format      ascii;
    arch        "LSB;label=32;scalar=64";
    class       volScalarField;
    location    "0";
    object      k;
}
// * * * * * * * * * * * * * * * * * * * * * * * * * * * * * * * * * * * * * //

dimensions      [0 2 -2 0 0 0 0];

internalField   uniform 0.24;

boundaryField
{
    wall
    {
        type            kqRWallFunction;
        value           nonuniform List<scalar> 0();
    }
    inlet
    {
        type            fixedValue;
        value           nonuniform List<scalar> 0();
    }
    outlet
    {
        type            zeroGradient;
    }
    oversetPatch
    {
        type            overset;
        value           nonuniform List<scalar> 0();
    }
    seed
    {
        type            kqRWallFunction;
        value           uniform 0.24;
    }
    procBoundary10to1
    {
        type            processor;
        value           uniform 0.24;
    }
    procBoundary10to3
    {
        type            processor;
        value           uniform 0.24;
    }
    procBoundary10to4
    {
        type            processor;
        value           uniform 0.24;
    }
    procBoundary10to5
    {
        type            processor;
        value           uniform 0.24;
    }
    procBoundary10to7
    {
        type            processor;
        value           uniform 0.24;
    }
    procBoundary10to8
    {
        type            processor;
        value           uniform 0.24;
    }
    procBoundary10to9
    {
        type            processor;
        value           uniform 0.24;
    }
    procBoundary10to11
    {
        type            processor;
        value           uniform 0.24;
    }
}


// ************************************************************************* //
