/*--------------------------------*- C++ -*----------------------------------*\
| =========                 |                                                 |
| \\      /  F ield         | OpenFOAM: The Open Source CFD Toolbox           |
|  \\    /   O peration     | Version:  2406                                  |
|   \\  /    A nd           | Website:  www.openfoam.com                      |
|    \\/     M anipulation  |                                                 |
\*---------------------------------------------------------------------------*/
FoamFile
{
    version     2.0;
    format      ascii;
    arch        "LSB;label=32;scalar=64";
    class       pointScalarField;
    location    "0";
    object      motionScale;
}
// * * * * * * * * * * * * * * * * * * * * * * * * * * * * * * * * * * * * * //

dimensions      [0 0 0 0 0 0 0];

internalField   nonuniform List<scalar> 
43903
(
0
0
0
0
0
0
0
0
0
0
0
0
0
0
0
0
0
0
0
0
0
0
0
0
0
0
0
0
0
0
0
0
0
0
0
0
0
0
0
0
0
0
0
0
0
0
0
0
0
0
0
0
0
0
0
0
0
0
0
0
0
0
0
0
0
0
0
0
0
0
0
0
0
0
0
0
0
0
0
0
0
0
0
0
0
0
0
0
0
0
0
0
0
0
0
0
0
0
0
0
0
0
0
0
0
0
0
0
0
0
0
0
0
0
0
0
0
0
0
0
0
0
0
0
0
0
0
0
0
0
0
0
0
0
0
0
0
0
0
0
0
0
0
0
0
0
0
0
0
0
0
0
0
0
0
0
0
0
0
0
0
0
0
0
0
0
0
0
0
0
0
0
0
0
0
0
0
0
0
0
0
0
0
0
0
0
0
0
0
0
0
0
0
0
0
0
0
0
0
0
0
0
0
0
0
0
0
0
0
0
0
0
0
0
0
0
0
0
0
0
0
0
0
0
0
0
0
0
0
0
0
0
0
0
0
0
0
0
0
0
0
0
0
0
0
0
0
0
0
0
0
0
0
0
0
0
0
0
0
0
0
0
0
0
0
0
0
0
0
0
0
0
0
0
0
0
0
0
0
0
0
0
0
0
0
0
0
0
0
0
0
0
0
0
0
0
0
0
0
0
0
0
0
0
0
0
0
0
0
0
0
0
0
0
0
0
0
0
0
0
0
0
0
0
0
0
0
0
0
0
0
0
0
0
0
0
0
0
0
0
0
0
0
0
0
0
0
0
0
0
0
0
0
0
0
0
0
0
0
0
0
0
0
0
0
0
0
0
0
0
0
0
0
0
0
0
0
0
0
0
0
0
0
0
0
0
0
0
0
0
0
0
0
0
0
0
0
0
0
0
0
0
0
0
0
0
0
0
0
0
0
0
0
0
0
0
0
0
0
0
0
0
0
0
0
0
0
0
0
0
0
0
0
0
0
0
0
0
0
0
0
0
0
0
0
0
0
0
0
0
0
0
0
0
0
0
0
0
0
0
0
0
0
0
0
0
0
0
0
0
0
0
0
0
0
0
0
0
0
0
0
0
0
0
0
0
0
0
0
0
0
0
0
0
0
0
0
0
0
0
0
0
0
0
0
0
0
0
0
0
0
0
0
0
0
0
0
0
0
0
0
0
0
0
0
0
0
0
0
0
0
0
0
0
0
0
0
0
0
0
0
0
0
0
0
0
0
0
0
0
0
0
0
0
0
0
0
0
0
0
0
0
0
0
0
0
0
0
0
0
0
0
0
0
0
0
0
0
0
0
0
0
0
0
0
0
0
0
0
0
0
0
0
0
0
0
0
0
0
0
0
0
0
0
0
0
0
0
0
0
0
0
0
0
0
0
0
0
0
0
0
0
0
0
0
0
0
0
0
0
0
0
0
0
0
0
0
0
0
0
0
0
0
0
0
0
0
0
0
0
0
0
0
0
0
0
0
0
0
0
0
0
0
0
0
0
0
0
0
0
0
0
0
0
0
0
0
0
0
0
0
0
0
0
0
0
0
0
0
0
0
0
0
0
0
0
0
0
0
0
0
0
0
0
0
0
0
0
0
0
0
0
0
0
0
0
0
0
0
0
0
0
0
0
0
0
0
0
0
0
0
0
0
0
0
0
0
0
0
0
0
0
0
0
0
0
0
0
0
0
0
0
0
0
0
0
0
0
0
0
0
0
0
0
0
0
0
0
0
0
0
0
0
0
0
0
0
0
0
0
0
0
0
0
0
0
0
0
0
0
0
0
0
0
0
0
0
0
0
0
0
0
0
0
0
0
0
0
0
0
0
0
0
0
0
0
0
0
0
0
0
0
0
0
0
0
0
0
0
0
0
0
0
0
0
0
0
0
0
0
0
0
0
0
0
0
0
0
0
0
0
0
0
0
0
0
0
0
0
0
0
0
0
0
0
0
0
0
0
0
0
0
0
0
0
0
0
0
0
0
0
0
0
0
0
0
0
0
0
0
0
0
0
0
0
0
0
0
0
0
0
0
0
0
0
0
0
0
0
0
0
0
0
0
0
0
0
0
0
0
0
0
0
0
0
0
0
0
0
0
0
0
0
0
0
0
0
0
0
0
0
0
0
0
0
0
0
0
0
0
0
0
0
0
0
0
0
0
0
0
0
0
0
0
0
0
0
0
0
0
0
0
0
0
0
0
0
0
0
0
0
0
0
0
0
0
0
0
0
0
0
0
0
0
0
0
0
0
0
0
0
0
0
0
0
0
0
0
0
0
0
0
0
0
0
0
0
0
0
0
0
0
0
0
0
0
0
0
0
0
0
0
0
0
0
0
0
0
0
0
0
0
0
0
0
0
0
0
0
0
0
0
0
0
0
0
0
0
0
0
0
0
0
0
0
0
0
0
0
0
0
0
0
0
0
0
0
0
0
0
0
0
0
0
0
0
0
0
0
0
0
0
0
0
0
0
0
0
0
0
0
0
0
0
0
0
0
0
0
0
0
0
0
0
0
0
0
0
0
0
0
0
0
0
0
0
0
0
0
0
0
0
0
0
0
0
0
0
0
0
0
0
0
0
0
0
0
0
0
0
0
0
0
0
0
0
0
0
0
0
0
0
0
0
0
0
0
0
0
0
0
0
0
0
0
0
0
0
0
0
0
0
0
0
0
0
0
0
0
0
0
0
0
0
0
0
0
0
0
0
0
0
0
0
0
0
0
0
0
0
0
0
0
0
0
0
0
0
0
0
0
0
0
0
0
0
0
0
0
0
0
0
0
0
0
0
0
0
0
0
0
0
0
0
0
0
0
0
0
0
0
0
0
0
0
0
0
0
0
0
0
0
0
0
0
0
0
0
0
0
0
0
0
0
0
0
0
0
0
0
0
0
0
0
0
0
0
0
0
0
0
0
0
0
0
0
0
0
0
0
0
0
0
0
0
0
0
0
0
0
0
0
0
0
0
0
0
0
0
0
0
0
0
0
0
0
0
0
0
0
0
0
0
0
0
0
0
0
0
0
0
0
0
0
0
0
0
0
0
0
0
0
0
0
0
0
0
0
0
0
0
0
0
0
0
0
0
0
0
0
0
0
0
0
0
0
0
0
0
0
0
0
0
0
0
0
0
0
0
0
0
0
0
0
0
0
0
0
0
0
0
0
0
0
0
0
0
0
0
0
0
0
0
0
0
0
0
0
0
0
0
0
0
0
0
0
0
0
0
0
0
0
0
0
0
0
0
0
0
0
0
0
0
0
0
0
0
0
0
0
0
0
0
0
0
0
0
0
0
0
0
0
0
0
0
0
0
0
0
0
0
0
0
0
0
0
0
0
0
0
0
0
0
0
0
0
0
0
0
0
0
0
0
0
0
0
0
0
0
0
0
0
0
0
0
0
0
0
0
0
0
0
0
0
0
0
0
0
0
0
0
0
0
0
0
0
0
0
0
0
0
0
0
0
0
0
0
0
0
0
0
0
0
0
0
0
0
0
0
0
0
0
0
0
0
0
0
0
0
0
0
0
0
0
0
0
0
0
0
0
0
0
0
0
0
0
0
0
0
0
0
0
0
0
0
0
0
0
0
0
0
0
0
0
0
0
0
0
0
0
0
0
0
0
0
0
0
0
0
0
0
0
0
0
0
0
0
0
0
0
0
0
0
0
0
0
0
0
0
0
0
0
0
0
0
0
0
0
0
0
0
0
0
0
0
0
0
0
0
0
0
0
0
0
0
0
0
0
0
0
0
0
0
0
0
0
0
0
0
0
0
0
0
0
0
0
0
0
0
0
0
0
0
0
0
0
0
0
0
0
0
0
0
0
0
0
0
0
0
0
0
0
0
0
0
0
0
0
0
0
0
0
0
0
0
0
0
0
0
0
0
0
0
0
0
0
0
0
0
0
0
0
0
0
0
0
0
0
0
0
0
0
0
0
0
0
0
0
0
0
0
0
0
0
0
0
0
0
0
0
0
0
0
0
0
0
0
0
0
0
0
0
0
0
0
0
0
0
0
0
0
0
0
0
0
0
0
0
0
0
0
0
0
0
0
0
0
0
0
0
0
0
0
0
0
0
0
0
0
0
0
0
0
0
0
0
0
0
0
0
0
0
0
0
0
0
0
0
0
0
0
0
0
0
0
0
0
0
0
0
0
0
0
0
0
0
0
0
0
0
0
0
0
0
0
0
0
0
0
0
0
0
0
0
0
0
0
0
0
0
0
0
0
0
0
0
0
0
0
0
0
0
0
0
0
0
0
0
0
0
0
0
0
0
0
0
0
0
0
0
0
0
0
0
0
0
0
0
0
0
0
0
0
0
0
0
0
0
0
0
0
0
0
0
0
0
0
0
0
0
0
0
0
0
0
0
0
0
0
0
0
0
0
0
0
0
0
0
0
0
0
0
0
0
0
0
0
0
0
0
0
0
0
0
0
0
0
0
0
0
0
0
0
0
0
0
0
0
0
0
0
0
0
0
0
0
0
0
0
0
0
0
0
0
0
0
0
0
0
0
0
0
0
0
0
0
0
0
0
0
0
0
0
0
0
0
0
0
0
0
0
0
0
0
0
0
0
0
0
0
0
0
0
0
0
0
0
0
0
0
0
0
0
0
0
0
0
0
0
0
0
0
0
0
0
0
0
0
0
0
0
0
0
0
0
0
0
0
0
0
0
0
0
0
0
0
0
0
0
0
0
0
0
0
0
0
0
0
0
0
0
0
0
0
0
0
0
0
0
0
0
0
0
0
0
0
0
0
0
0
0
0
0
0
0
0
0
0
0
0
0
0
0
0
0
0
0
0
0
0
0
0
0
0
0
0
0
0
0
0
0
0
0
0
0
0
0
0
0
0
0
0
0
0
0
0
0
0
0
0
0
0
0
0
0
0
0
0
0
0
0
0
0
0
0
0
0
0
0
0
0
0
0
0
0
0
0
0
0
0
0
0
0
0
0
0
0
0
0
0
0
0
0
0
0
0
0
0
0
0
0
0
0
0
0
0
0
0
0
0
0
0
0
0
0
0
0
0
0
0
0
0
0
0
0
0
0
0
0
0
0
0
0
0
0
0
0
0
0
0
0
0
0
0
0
0
0
0
0
0
0
0
0
0
0
0
0
0
0
0
0
0
0
0
0
0
0
0
0
0
0
0
0
0
0
0
0
0
0
0
0
0
0
0
0
0
0
0
0
0
0
0
0
0
0
0
0
0
0
0
0
0
0
0
0
0
0
0
0
0
0
0
0
0
0
0
0
0
0
0
0
0
0
0
0
0
0
0
0
0
0
0
0
0
0
0
0
0
0
0
0
0
0
0
0
0
0
0
0
0
0
0
0
0
0
0
0
0
0
0
0
0
0
0
0
0
0
0
0
0
0
0
0
0
0
0
0
0
0
0
0
0
0
0
0
0
0
0
0
0
0
0
0
0
0
0
0
0
0
0
0
0
0
0
0
0
0
0
0
0
0
0
0
0
0
0
0
0
0
0
0
0
0
0
0
0
0
0
0
0
0
0
0
0
0
0
0
0
0
0
0
0
0
0
0
0
0
0
0
0
0
0
0
0
0
0
0
0
0
0
0
0
0
0
0
0
0
0
0
0
0
0
0
0
0
0
0
0
0
0
0
0
0
0
0
0
0
0
0
0
0
0
0
0
0
0
0
0
0
0
0
0
0
0
0
0
0
0
0
0
0
0
0
0
0
0
0
0
0
0
0
0
0
0
0
0
0
0
0
0
0
0
0
0
0
0
0
0
0
0
0
0
0
0
0
0
0
0
0
0
0
0
0
0
0
0
0
0
0
0
0
0
0
0
0
0
0
0
0
0
0
0
0
0
0
0
0
0
0
0
0
0
0
0
0
0
0
0
0
0
0
0
0
0
0
0
0
0
0
0
0
0
0
0
0
0
0
0
0
0
0
0
0
0
0
0
0
0
0
0
0
0
0
0
0
0
0
0
0
0
0
0
0
0
0
0
0
0
0
0
0
0
0
0
0
0
0
0
0
0
0
0
0
0
0
0
0
0
0
0
0
0
0
0
0
0
0
0
0
0
0
0
0
0
0
0
0
0
0
0
0
0
0
0
0
0
0
0
0
0
0
0
0
0
0
0
0
0
0
0
0
0
0
0
0
0
0
0
0
0
0
0
0
0
0
0
0
0
0
0
0
0
0
0
0
0
0
0
0
0
0
0
0
0
0
0
0
0
0
0
0
0
0
0
0
0
0
0
0
0
0
0
0
0
0
0
0
0
0
0
0
0
0
0
0
0
0
0
0
0
0
0
0
0
0
0
0
0
0
0
0
0
0
0
0
0
0
0
0
0
0
0
0
0
0
0
0
0
0
0
0
0
0
0
0
0
0
0
0
0
0
0
0
0
0
0
0
0
0
0
0
0
0
0
0
0
0
0
0
0
0
0
0
0
0
0
0
0
0
0
0
0
0
0
0
0
0
0
0
0
0
0
0
0
0
0
0
0
0
0
0
0
0
0
0
0
0
0
0
0
0
0
0
0
0
0
0
0
0
0
0
0
0
0
0
0
0
0
0
0
0
0
0
0
0
0
0
0
0
0
0
0
0
0
0
0
0
0
0
0
0
0
0
0
0
0
0
0
0
0
0
0
0
0
0
0
0
0
0
0
0
0
0
0
0
0
0
0
0
0
0
0
0
0
0
0
0
0
0
0
0
0
0
0
0
0
0
0
0
0
0
0
0
0
0
0
0
0
0
0
0
0
0
0
0
0
0
0
0
0
0
0
0
0
0
0
0
0
0
0
0
0
0
0
0
0
0
0
0
0
0
0
0
0
0
0
0
0
0
0
0
0
0
0
0
0
0
0
0
0
0
0
0
0
0
0
0
0
0
0
0
0
0
0
0
0
0
0
0
0
0
0
0
0
0
0
0
0
0
0
0
0
0
0
0
0
0
0
0
0
0
0
0
0
0
0
0
0
0
0
0
0
0
0
0
0
0
0
0
0
0
0
0
0
0
0
0
0
0
0
0
0
0
0
0
0
0
0
0
0
0
0
0
0
0
0
0
0
0
0
0
0
0
0
0
0
0
0
0
0
0
0
0
0
0
0
0
0
0
0
0
0
0
0
0
0
0
0
0
0
0
0
0
0
0
0
0
0
0
0
0
0
0
0
0
0
0
0
0
0
0
0
0
0
0
0
0
0
0
0
0
0
0
0
0
0
0
0
0
0
0
0
0
0
0
0
0
0
0
0
0
0
0
0
0
0
0
0
0
0
0
0
0
0
0
0
0
0
0
0
0
0
0
0
0
0
0
0
0
0
0
0
0
0
0
0
0
0
0
0
0
0
0
0
0
0
0
0
0
0
0
0
0
0
0
0
0
0
0
0
0
0
0
0
0
0
0
0
0
0
0
0
0
0
0
0
0
0
0
0
0
0
0
0
0
0
0
0
0
0
0
0
0
0
0
0
0
0
0
0
0
0
0
0
0
0
0
0
0
0
0
0
0
0
0
0
0
0
0
0
0
0
0
0
0
0
0
0
0
0
0
0
0
0
0
0
0
0
0
0
0
0
0
0
0
0
0
0
0
0
0
0
0
0
0
0
0
0
0
0
0
0
0
0
0
0
0
0
0
0
0
0
0
0
0
0
0
0
0
0
0
0
0
0
0
0
0
0
0
0
0
0
0
0
0
0
0
0
0
0
0
0
0
0
0
0
0
0
0
0
0
0
0
0
0
0
0
0
0
0
0
0
0
0
0
0
0
0
0
0
0
0
0
0
0
0
0
0
0
0
0
0
0
0
0
0
0
0
0
0
0
0
0
0
0
0
0
0
0
0
0
0
0
0
0
0
0
0
0
0
0
0
0
0
0
0
0
0
0
0
0
0
0
0
0
0
0
0
0
0
0
0
0
0
0
0
0
0
0
0
0
0
0
0
0
0
0
0
0
0
0
0
0
0
0
0
0
0
0
0
0
0
0
0
0
0
0
0
0
0
0
0
0
0
0
0
0
0
0
0
0
0
0
0
0
0
0
0
0
0
0
0
0
0
0
0
0
0
0
0
0
0
0
0
0
0
0
0
0
0
0
0
0
0
0
0
0
0
0
0
0
0
0
0
0
0
0
0
0
0
0
0
0
0
0
0
0
0
0
0
0
0
0
0
0
0
0
0
0
0
0
0
0
0
0
0
0
0
0
0
0
0
0
0
0
0
0
0
0
0
0
0
0
0
0
0
0
0
0
0
0
0
0
0
0
0
0
0
0
0
0
0
0
0
0
0
0
0
0
0
0
0
0
0
0
0
0
0
0
0
0
0
0
0
0
0
0
0
0
0
0
0
0
0
0
0
0
0
0
0
0
0
0
0
0
0
0
0
0
0
0
0
0
0
0
0
0
0
0
0
0
0
0
0
0
0
0
0
0
0
0
0
0
0
0
0
0
0
0
0
0
0
0
0
0
0
0
0
0
0
0
0
0
0
0
0
0
0
0
0
0
0
0
0
0
0
0
0
0
0
0
0
0
0
0
0
0
0
0
0
0
0
0
0
0
0
0
0
0
0
0
0
0
0
0
0
0
0
0
0
0
0
0
0
0
0
0
0
0
0
0
0
0
0
0
0
0
0
0
0
0
0
0
0
0
0
0
0
0
0
0
0
0
0
0
0
0
0
0
0
0
0
0
0
0
0
0
0
0
0
0
0
0
0
0
0
0
0
0
0
0
0
0
0
0
0
0
0
0
0
0
0
0
0
0
0
0
0
0
0
0
0
0
0
0
0
0
0
0
0
0
0
0
0
0
0
0
0
0
0
0
0
0
0
0
0
0
0
0
0
0
0
0
0
0
0
0
0
0
0
0
0
0
0
0
0
0
0
0
0
0
0
0
0
0
0
0
0
0
0
0
0
0
0
0
0
0
0
0
0
0
0
0
0
0
0
0
0
0
0
0
0
0
0
0
0
0
0
0
0
0
0
0
0
0
0
0
0
0
0
0
0
0
0
0
0
0
0
0
0
0
0
0
0
0
0
0
0
0
0
0
0
0
0
0
0
0
0
0
0
0
0
0
0
0
0
0
0
0
0
0
0
0
0
0
0
0
0
0
0
0
0
0
0
0
0
0
0
0
0
0
0
0
0
0
0
0
0
0
0
0
0
0
0
0
0
0
0
0
0
0
0
0
0
0
0
0
0
0
0
0
0
0
0
0
0
0
0
0
0
0
0
0
0
0
0
0
0
0
0
0
0
0
0
0
0
0
0
0
0
0
0
0
0
0
0
0.557851947702
0.571062275126
0.583505053427
0.595141839014
0.605937900161
0.61586106923
0.624881038411
0.632971212651
0.640107746893
0.646269075689
0.651437236525
0.594399367528
0.608141324436
0.621080356435
0.63317733341
0.644396960612
0.654706579885
0.664075432969
0.672476580141
0.679885892505
0.686281556052
0.69164543718
0.629657952743
0.643900292941
0.657306013507
0.669835377977
0.681452610101
0.692124647029
0.701820371703
0.710512591948
0.718176988688
0.724791593539
0.730338190528
0.663352521055
0.678061549932
0.691902042257
0.704833736746
0.716820460738
0.727828839146
0.737827498086
0.746789099036
0.754689243963
0.761505925145
0.767220955762
0.695221628033
0.710361386687
0.724602541836
0.737904386354
0.750230436467
0.761547101545
0.771822862342
0.781030355237
0.789145235764
0.796145599092
0.802013430621
0.725019778288
0.740552274919
0.755157996585
0.76879586038
0.7814291507
0.79302415698
0.803549332062
0.812977423047
0.821284296163
0.828448326766
0.834451859495
0.752519524981
0.768405029442
0.783337502834
0.797275537895
0.810182249847
0.822023892209
0.832769004469
0.84239058957
0.850864906718
0.85817083207
0.864291483138
0.77968360886
0.795723451521
0.81077969551
0.823131862031
0.836276723457
0.848331748923
0.859265657357
0.869052122437
0.877667167295
0.885091265588
0.891308198016
0.802083754241
0.818390827401
0.833691785426
0.847945133027
0.861114238411
0.873165961821
0.884069845291
0.892767799768
0.901495456815
0.909011818086
0.915302027256
0.821625925343
0.838158299963
0.853663985476
0.868101081517
0.881432708895
0.893625668499
0.904649687062
0.914480059277
0.923095124012
0.929761789817
0.936099393251
0.838171458406
0.854887652485
0.870558647899
0.885141979766
0.898600311479
0.910900135073
0.922011098443
0.93190879459
0.940572384302
0.947987193189
0.95414270036
0.851606565089
0.868466330653
0.884264741806
0.89895857602
0.912510139525
0.924884049963
0.936050529787
0.945984463716
0.954665197459
0.962079135592
0.968218252616
0.8618421809
0.878807212346
0.894697601362
0.90946922601
0.923083384024
0.935503545523
0.946698670884
0.956642323949
0.965696317022
0.973014259304
0.979037538117
0.868813097386
0.885847435767
0.90179742723
0.916618083528
0.930269630936
0.942714216743
0.954435167276
0.964307284755
0.972885300487
0.980151788301
0.986096307852
0.872476549338
0.889546440881
0.905526617907
0.920371529583
0.934040671795
0.947079168637
0.958221353113
0.96808268749
0.976635695918
0.983730539104
0.989630428328
0.872810691588
0.889883796552
0.905866688858
0.920713756027
0.934384422859
0.947428295496
0.958530559342
0.968395553122
0.976950813722
0.9840835469
0.989975010743
0.655597123549
0.695962299327
0.734801494256
0.771819106935
0.806733697233
0.839280246248
0.869212364029
0.896304487548
0.920354172381
0.941184719163
0.958648840868
0.973082201248
0.983769697945
0.990720163587
0.994244826502
0.994500190357
0.658736278049
0.660845634458
0.69921957752
0.70140814515
0.738168905643
0.740431294179
0.77528783999
0.777618096757
0.810294048551
0.81268560425
0.842921513361
0.845367088589
0.872922626826
0.87541409255
0.900070326543
0.902598433439
0.924160101992
0.92671403985
0.945012271012
0.947579178017
0.962475047651
0.965036990656
0.976735135699
0.978960584565
0.98716004642
0.989401299993
0.993978407031
0.996083423211
0.9973964148
0.999215125777
0.997688926664
0.999616573097
0.99809225419
0.664109801664
0.664761232484
0.704601941173
0.705277631949
0.743533427154
0.744231701312
0.780607972414
0.781326976655
0.815543459672
0.816281141021
0.848074087182
0.848828173202
0.877952439192
0.878720372619
0.904951399967
0.905730245016
0.928866359507
0.929652640585
0.949515267438
0.950304636596
0.966743005642
0.967529542479
0.980243649231
0.981196524481
0.990497145574
0.991201478185
0.997026681582
0.997468672876
0.999855806466
0.999912320097
0.999661232544
1
0.997268793842
0.998905563658
0.999864395395
0.999887746309
0.999925636308
1
0.999900840974
1
0.999996883816
0.999052877496
1
1
1
0.999956244485
1
1
1
1
0.999999974613
1
1
1
1
1
1
1
0.999966201162
1
0.996715040093
0.999785969962
0.999661226151
0.99999991206
0.999997126354
1
1
1
1
1
0.999789980887
0.999999887441
0.999879310919
1
0.998615375509
1
0.999939619925
1
1
1
1
1
1
1
1
1
1
1
1
1
1
1
0.998468000034
0.997899847052
1
1
1
0.998931863001
1
1
1
1
1
0.999616569641
0.999986411523
1
1
0.99999403252
1
1
1
0.999829182839
1
0.999967387878
0.999987562805
0.999994959673
0.999725019357
0.999215127686
0.999493654012
0.999473455755
0.999473446974
0.999493645531
0.995182977536
0.996132701093
1
1
0.997266078901
1
1
1
1
1
1
1
1
1
1
1
1
1
1
1
1
1
1
1
1
1
1
1
1
1
1
1
1
1
1
1
1
1
1
1
1
1
1
1
1
1
1
1
1
1
1
1
1
1
1
1
1
1
1
1
1
1
1
1
1
1
1
1
1
1
1
1
1
1
1
1
1
1
1
1
1
1
1
1
1
1
1
1
1
1
1
1
1
1
1
1
1
1
1
1
1
1
1
1
1
1
1
1
1
1
1
1
1
1
1
1
1
1
1
1
1
1
1
1
1
1
1
1
1
1
1
1
1
1
1
1
1
1
1
1
1
1
1
1
1
1
1
1
1
1
1
1
1
1
1
1
1
1
1
1
1
1
1
1
1
1
1
1
1
1
1
1
1
1
1
1
1
1
1
1
1
1
1
1
1
1
1
1
1
1
1
1
1
1
1
1
1
1
1
1
1
1
1
1
1
1
1
1
1
1
1
0.999935163184
1
1
0.557325569428
0.57052814251
0.582963679872
0.594593748223
0.605383624389
0.615301148269
0.624316019057
0.632401647189
0.639534192239
0.645692092881
0.650857389577
0.555866573862
0.569047639124
0.581463092318
0.593074528765
0.60384724905
0.613749114039
0.6227498486
0.630822866123
0.637944345222
0.644092736069
0.649250087453
0.55347955204
0.566625382533
0.579007932135
0.590588843164
0.601333455277
0.61120966386
0.620187219671
0.628239573698
0.635342919757
0.641475727058
0.646620058227
0.550172037254
0.563268950119
0.575605816332
0.587144343721
0.59784992649
0.607690508281
0.616635884776
0.624659542422
0.631737705069
0.637848868776
0.642975115779
0.545954278447
0.558988649825
0.571267105897
0.58275143868
0.593407112615
0.603202133601
0.612106355366
0.620093310341
0.627139261455
0.633222739768
0.63832585324
0.540839817101
0.553798106537
0.566005501126
0.577423895945
0.588018841612
0.597758420585
0.606612558103
0.614554843491
0.621561588198
0.627611366855
0.63268631966
0.534844680985
0.547713445023
0.559837214563
0.571178006831
0.581701474855
0.591375792295
0.600170969755
0.60806066479
0.61502124727
0.621031344411
0.626073135622
0.527987608731
0.540753519083
0.552781204513
0.564032823729
0.574474148712
0.584073459334
0.592800865826
0.600630105769
0.607537617827
0.613502091306
0.618505752261
0.520290742152
0.532940615679
0.544859890325
0.556010885836
0.56635950999
0.575874164251
0.58452507314
0.592286066517
0.599133662689
0.605046623033
0.610007228158
0.51177833975
0.524299150646
0.536097831556
0.547136883054
0.55738236587
0.566802818796
0.57536859572
0.583053631471
0.589834535327
0.595690151178
0.600602822552
0.502477224682
0.514856124772
0.526522191728
0.537438126952
0.547570161572
0.556886987789
0.565359104305
0.572960564043
0.579668079007
0.585460586486
0.590320501714
0.492417664576
0.50464201866
0.516163647316
0.526945472938
0.536953914741
0.546157834712
0.554527892145
0.562038271542
0.568665799783
0.574389518811
0.579191924737
0.481631620563
0.493689016573
0.505054588111
0.515691498881
0.525566374091
0.534648262154
0.542907999013
0.550319914571
0.55686096307
0.562510302699
0.567250519939
0.470153402663
0.482031673123
0.493229794527
0.503711192305
0.513442715735
0.522393616509
0.530534923513
0.537841126135
0.544289318745
0.54985878764
0.554532219438
0.458020708877
0.469707970213
0.480727511246
0.491043039577
0.500621646734
0.509432804672
0.51744775166
0.524641150846
0.530990249696
0.536474474671
0.541076622482
0.593851703755
0.60758579188
0.620517481533
0.632607652463
0.643821017895
0.654124926519
0.663488626273
0.671885182026
0.679290468543
0.685682674939
0.691043669602
0.592333668737
0.606045930425
0.618957253387
0.631028544772
0.64222453999
0.652512606788
0.661862016818
0.670245834947
0.677639952571
0.684022567571
0.689375553951
0.589849923685
0.603526424883
0.61640437746
0.628444733621
0.63961226531
0.649874371722
0.65920034663
0.667563289013
0.674939100974
0.681305995066
0.686645854793
0.586408118702
0.600034964821
0.612866577982
0.624863973271
0.635991973747
0.646218022722
0.655511454136
0.663845397088
0.671195778007
0.677540830429
0.682862451657
0.582018659086
0.595582008407
0.608354359593
0.620296808674
0.631374244712
0.641554168177
0.650805965215
0.659102804363
0.666420644134
0.6727377459
0.678036025593
0.576695308516
0.590181395529
0.602881629868
0.614757206847
0.625773096777
0.635896870774
0.645097979732
0.653349641516
0.660627855095
0.666910917165
0.672180767745
0.570454353381
0.583849501487
0.596464843229
0.608261691857
0.619205114603
0.629262767201
0.638404178416
0.646602625968
0.653834158337
0.660077115722
0.665313468382
0.563314840176
0.576605479382
0.589123248139
0.600829596635
0.611689705132
0.621671328498
0.630744087088
0.63888132968
0.646059164031
0.652255982761
0.657453793235
0.555299300568
0.568471997548
0.580879636238
0.592483823107
0.603249868003
0.613145639972
0.622140865287
0.630208975654
0.637326148596
0.643470838781
0.648625098264
0.546432416266
0.559473886657
0.571758972999
0.58324945773
0.59391079729
0.603710990481
0.612619884407
0.620611006244
0.627660614447
0.633747236067
0.638852976108
0.536741489514
0.549638618756
0.561788884859
0.573154266246
0.583700383382
0.593395380902
0.602209242224
0.61011560314
0.617090814856
0.623113487779
0.628165788748
0.526257364426
0.53899724415
0.551000610721
0.562229658842
0.572650190813
0.582230513624
0.590940762972
0.59875469696
0.605648771934
0.611601693189
0.616595698842
0.515012606995
0.527582545983
0.539427132865
0.550508799172
0.560793547182
0.570249863159
0.578848051478
0.58656200673
0.593368303278
0.599245753323
0.604176676174
0.503042191646
0.515429738434
0.527103886063
0.538027323638
0.548166271839
0.557489413452
0.565967238282
0.573573791977
0.580285780207
0.586082134492
0.590945265626
0.490384589446
0.502577573187
0.514069881149
0.524824480867
0.534807830043
0.54398882546
0.552338159359
0.55983004331
0.566441327875
0.572151076593
0.576941802325
0.62909024605
0.643324626388
0.656722926859
0.669245420311
0.680856337722
0.691522622169
0.701213161693
0.709900767453
0.717561122652
0.724172260581
0.72971596579
0.627516614861
0.641728914562
0.655106630999
0.667610062898
0.679203461385
0.689853792657
0.699529945875
0.708204748109
0.71585388903
0.72245540672
0.727991087336
0.624941777434
0.639117895242
0.652461879934
0.664934072836
0.676498758323
0.68712292336
0.696775493987
0.705429306498
0.713060061604
0.719645805706
0.725168328072
0.62137347954
0.635499347231
0.648796480163
0.661225279207
0.67275007541
0.683337894351
0.692957695741
0.701582338574
0.709187539782
0.715751358258
0.721255588532
0.616822254731
0.630883848479
0.644121046951
0.656494327824
0.667968082659
0.678509387419
0.68808724605
0.696674547903
0.704247032107
0.710782775052
0.71626357953
0.611302053129
0.625285415352
0.638449653584
0.650755339944
0.662166940845
0.672651595029
0.682178361982
0.690720169921
0.69825278707
0.704754313305
0.710206563658
0.604829378989
0.618720629913
0.631798949292
0.64402502175
0.655363403469
0.665781309065
0.675247865695
0.683736049887
0.691221666886
0.6976828471
0.703101422857
0.597423541152
0.611208895922
0.624188420651
0.63632293101
0.647577088475
0.657918197382
0.667315465563
0.675741928287
0.683173436802
0.689588160204
0.694967954258
0.589107409974
0.602773208786
0.615641173919
0.627672271101
0.638831283253
0.649085619038
0.658404580835
0.66676127406
0.674131606001
0.680493793675
0.6858297235
0.579906037233
0.593438757915
0.606182521204
0.618098462387
0.629151502611
0.639309170212
0.648540876845
0.65681981043
0.664121945333
0.670425556746
0.675712569967
0.569847148657
0.583233428273
0.595840490613
0.607629660488
0.618566014655
0.628617217183
0.637752804525
0.645946060337
0.653173038032
0.65941208216
0.664645166034
0.558962105115
0.572188777657
0.58464681867
0.596297762875
0.607106860555
0.61704192821
0.626072643312
0.634172399268
0.641317341309
0.647485895339
0.652660092608
0.547284017981
0.560338126498
0.572635016355
0.584136452946
0.594807878489
0.604617279167
0.613534490318
0.621533029782
0.628589148075
0.634681365133
0.639791780718
0.534848465461
0.54771728613
0.559841108571
0.571181949932
0.581705463176
0.591379821907
0.600175036671
0.608064764983
0.615025376672
0.621035498924
0.62607731112
0.52169462745
0.534365712303
0.546304805107
0.557474196062
0.567839767998
0.577369900017
0.586034795603
0.593808267594
0.600666819583
0.60658919962
0.611557678193
0.66276611077
0.677467115181
0.691300136912
0.704224923344
0.71620530814
0.727207920946
0.737201391514
0.746158382916
0.754054497436
0.760867726901
0.766579882825
0.661140594573
0.67581933704
0.689631632372
0.702537252052
0.71450005413
0.725486668083
0.735465740579
0.744409939307
0.752294867646
0.759098516403
0.764802692718
0.658480733056
0.673122989999
0.686901313181
0.699775513805
0.711709472384
0.722669853955
0.732625315786
0.741548533721
0.749415113608
0.756203045318
0.761894140006
0.654794344033
0.66938591607
0.683117039358
0.695947580714
0.707841461846
0.718765379331
0.728688015431
0.737582058499
0.745423119154
0.752189187437
0.757862056709
0.650092058062
0.664618778637
0.678289498948
0.691064157716
0.702906730369
0.713783955156
0.723664547947
0.73252121502
0.740329575275
0.747067621334
0.75271713956
0.644387972238
0.658835727458
0.672432883806
0.685139468658
0.696919524358
0.707739841815
0.717569180179
0.72638027032
0.734148744334
0.74085260135
0.746473622675
0.637698764011
0.652053502799
0.665563985067
0.678190344156
0.68989670327
0.70064991794
0.710418801443
0.719176117272
0.726897517162
0.733561012317
0.73914838259
0.630043955096
0.644291705645
0.6577024696
0.67023650418
0.681858028222
0.692533974866
0.702233223596
0.710928579988
0.71859572343
0.72521268442
0.730761246643
0.621446699429
0.63557359949
0.648871695025
0.661301385678
0.67282700153
0.683415567361
0.693036042182
0.701661284509
0.709267010935
0.715831280082
0.721335886362
0.611932362164
0.625924672187
0.639097255879
0.651410674506
0.662829385853
0.673320521405
0.682853134201
0.691400147911
0.698937327321
0.7054427695
0.710898287965
0.601529033723
0.6153731596
0.628407516446
0.640592846984
0.65189375398
0.662277491658
0.671713222705
0.68017394938
0.687635496962
0.694076012619
0.699477338656
0.590268529055
0.603951061517
0.616834642382
0.628880216244
0.640052548866
0.650319034123
0.659648960948
0.668015424705
0.675394324591
0.681763870657
0.68710594478
0.578184443044
0.591692171454
0.604412606736
0.616306916305
0.627340047613
0.637479551869
0.646694861698
0.654959181004
0.66224849727
0.668541097144
0.673818913743
0.56531289502
0.57863283338
0.591177958123
0.602909680894
0.613793150095
0.623796092604
0.632888102879
0.641042509539
0.648235403475
0.654445162359
0.65965378291
0.55169370755
0.564813139479
0.5771710362
0.588729075347
0.599452625972
0.609309609452
0.618269800738
0.626306669894
0.633396426887
0.639517555358
0.644652128457
0.694617942662
0.709749642199
0.723983307713
0.737278240076
0.749597960803
0.760908882543
0.771179487775
0.780382412112
0.788493308618
0.795490268884
0.801355273318
0.692944499449
0.708053838098
0.722266721257
0.735542478927
0.747844633733
0.759139614378
0.769395908348
0.778586149403
0.786685984093
0.793673494455
0.799530647466
0.690206084874
0.705278767075
0.719457576634
0.732701873387
0.744975218204
0.756244048686
0.766476861206
0.775646287353
0.783727964035
0.790699969461
0.796544228612
0.686410562517
0.701432304867
0.71556375417
0.728764321716
0.740997603246
0.752230059187
0.762430199638
0.771570654894
0.779627050521
0.786577436303
0.792403732159
0.681568625359
0.696525161625
0.710595971302
0.723740532308
0.735922486216
0.747108324371
0.757266576686
0.76636987459
0.774393832452
0.78131648105
0.78711971063
0.675694474174
0.690571572498
0.70456848503
0.717644772033
0.729764132698
0.740893098519
0.751000226788
0.760058154325
0.76804248657
0.77493123644
0.780706263655
0.668804911012
0.683588382377
0.697498169138
0.710493930261
0.7225394353
0.733601266414
0.743648017489
0.752652336965
0.760589825907
0.767438483034
0.773180139309
0.660919617185
0.675595331223
0.689404806899
0.702307818981
0.714268221183
0.725252658231
0.735229771527
0.744172229408
0.752055635427
0.758857980279
0.764561070536
0.652061971505
0.66661588715
0.6803119385
0.693110034022
0.704974126479
0.715870936469
0.72576916555
0.734641512229
0.742463591641
0.749213395014
0.75487271132
0.642257592747
0.656675772408
0.670245372113
0.682926452753
0.694683082145
0.70548207145
0.715292196669
0.724086198624
0.731839715193
0.738530748845
0.744141079914
0.631534874712
0.645803508717
0.659233739099
0.671785798728
0.683423887563
0.694114923325
0.70382777226
0.71253523136
0.720212974213
0.726839027119
0.732395172579
0.619926021624
0.634031469924
0.647309562961
0.659720725928
0.671229309001
0.681802353645
0.691408833483
0.700021616996
0.707616427997
0.714171330753
0.719668122239
0.607465048488
0.621393856779
0.634507210405
0.646765747948
0.65813398878
0.668579116331
0.678070229874
0.686580285919
0.694085074266
0.70056271251
0.705995025566
0.594188552009
0.607927480289
0.620863686291
0.632958043697
0.644175260825
0.654482682153
0.663849551804
0.67224893182
0.679656694714
0.686051027676
0.691413797868
0.580136930292
0.593673000598
0.606419890393
0.618338730662
0.629394439037
0.639554540798
0.648788444798
0.657069336827
0.664373189507
0.670678276505
0.675966522082
0.724400326107
0.739924762684
0.754523011941
0.768153998446
0.780781010852
0.792370340227
0.802890438772
0.812314049682
0.820617032802
0.827777755283
0.83377855165
0.722683134555
0.738185203851
0.752762721182
0.766374618056
0.778984201922
0.79055776857
0.80106376871
0.8104749351
0.818767110385
0.825918639573
0.831911829831
0.719872997769
0.735338388318
0.749881882896
0.763462461087
0.776043443344
0.787591133797
0.798073981616
0.807464714475
0.815739126915
0.822875540274
0.828856219049
0.715977796099
0.731392192316
0.745888380306
0.759425387546
0.771966562853
0.783478223173
0.793928817364
0.803291042745
0.811540681534
0.818656000377
0.824619208715
0.711008247054
0.726357329519
0.740792903655
0.754274058861
0.766764181515
0.778229607024
0.78863878684
0.797964397239
0.806182182199
0.813270358077
0.819211070558
0.704978608105
0.720248067417
0.734609714875
0.748022716333
0.76045050586
0.771859444394
0.782217990893
0.79149880173
0.799677581438
0.80673249352
0.812645615293
0.697905753699
0.713081297034
0.727355704518
0.740688233661
0.753042377472
0.764384531133
0.774683168249
0.78391092926
0.792043481443
0.799058936777
0.804939303793
0.68980946819
0.704876834593
0.719050702418
0.732290436847
0.744559602352
0.755824638858
0.766054044099
0.775220449434
0.783299490479
0.790269232813
0.796111619789
0.68071329369
0.695658285537
0.709718357503
0.722852999398
0.735025861044
0.746203439456
0.756354268307
0.765450979544
0.773469185924
0.780386915279
0.786186053046
0.670643040708
0.685451539636
0.699384619086
0.712401911466
0.724467167265
0.735546954753
0.745609857593
0.754628520584
0.76257854534
0.769437933687
0.775188523551
0.659627343651
0.674285337541
0.688078314091
0.700966067339
0.712912465155
0.72388416297
0.733849810525
0.742782080059
0.750656576253
0.757451289272
0.763148022499
0.647698730257
0.662192358074
0.675832251225
0.688578385434
0.700394763976
0.711248146917
0.721107267957
0.72994484332
0.73773649703
0.744460224002
0.750097808032
0.634891571958
0.649207143095
0.662681122195
0.675273687701
0.686948997511
0.69767393517
0.707417337717
0.716151983504
0.723853533784
0.73050000618
0.736073181292
0.62124287918
0.635366905329
0.648662321164
0.661089529746
0.672612863844
0.683199350466
0.69281795057
0.701441524
0.709045788305
0.715608802851
0.721112362384
0.606793558614
0.620712804891
0.633817239112
0.646067511561
0.657428150953
0.667866348626
0.677351210916
0.685855699387
0.693355607726
0.699829056745
0.705257873198
0.751885882231
0.767763363189
0.782688422884
0.796619661481
0.809520197754
0.821356285286
0.832096460247
0.841713717711
0.850184305111
0.857487083579
0.863605152432
0.750129308984
0.765984525989
0.780889003801
0.7948013701
0.80768475357
0.819505408141
0.830231861115
0.839837086276
0.848297299167
0.855591320248
0.861702199585
0.747254587119
0.763073260303
0.777943960974
0.791825343472
0.804680552904
0.816475844333
0.827179742528
0.836765166272
0.845208292077
0.852487876869
0.858586893756
0.743269582277
0.759037426963
0.77386111624
0.787699351038
0.80051529972
0.812275220119
0.822947609559
0.832505365848
0.840924590074
0.848183957004
0.854266340145
0.738184995665
0.753887688423
0.768651083277
0.78243394077
0.795199459907
0.806913904152
0.817545753356
0.827067856099
0.835456238386
0.842689479514
0.848750172867
0.732015091404
0.747638286806
0.762328061889
0.776043250064
0.788747089189
0.800405852829
0.810988004957
0.820466342087
0.828816809429
0.836017883387
0.842052032366
0.724776761398
0.74030609654
0.754908887269
0.768544053611
0.781174881628
0.792767661392
0.803290845486
0.81271717947
0.821022527058
0.828185260371
0.834187720067
0.716489834303
0.731910943979
0.746413360871
0.759956106131
0.772502524792
0.784018932033