/*--------------------------------*- C++ -*----------------------------------*\
| =========                 |                                                 |
| \\      /  F ield         | OpenFOAM: The Open Source CFD Toolbox           |
|  \\    /   O peration     | Version:  2406                                  |
|   \\  /    A nd           | Website:  www.openfoam.com                      |
|    \\/     M anipulation  |                                                 |
\*---------------------------------------------------------------------------*/
FoamFile
{
    version     2.0;
    format      ascii;
    arch        "LSB;label=32;scalar=64";
    class       pointScalarField;
    location    "0";
    object      motionScale;
}
// * * * * * * * * * * * * * * * * * * * * * * * * * * * * * * * * * * * * * //

dimensions      [0 0 0 0 0 0 0];

internalField   nonuniform List<scalar> 
32901
(
0
0
0
0
0
0
0
0
0
0
0
0
0
0
0
0
0
0
0
0
0
0
0
0
0
0
0
0
0
0
0
0
0
0
0
0
0
0
0
0
0
0
0
0
0
0
0
0
0
0
0
0
0
0
0
0
0
0
0
0
0
0
0
0
0
0
0
0
0
0
0
0
0
0
0
0
0
0
0
0
0
0
0
0
0
0
0
0
0
0
0
0
0
0
0
0
0
0
0
0
0
0
0
0
0
0
0
0
0
0
0
0
0
0
0
0
0
0
0
0
0
0
0
0
0
0
0
0
0
0
0
0
0
0
0
0
0
0
0
0
0
0
0
0
0
0
0
0
0
0
0
0
0
0
0
0
0
0
0
0
0
0
0
0
0
0
0
0
0
0
0
0
0
0
0
0
0
0
0
0
0
0
0
0
0
0
0
0
0
0
0
0
0
0
0
0
0
0
0
0
0
0
0
0
0
0
0
0
0
0
0
0
0
0
0
0
0
0
0
0
0
0
0
0
0
0
0
0
0
0
0
0
0
0
0
0
0
0
0
0
0
0
0
0
0
0
0
0
0
0
0
0
0
0
0
0
0
0
0
0
0
0
0
0
0
0
0
0
0
0
0
0
0
0
0
0
0
0
0
0
0
0
0
0
0
0
0
0
0
0
0
0
0
0
0
0
0
0
0
0
0
0
0
0
0
0
0
0
0
0
0
0
0
0
0
0
0
0
0
0
0
0
0
0
0
0
0
0
0
0
0
0
0
0
0
0
0
0
0
0
0
0
0
0
0
0
0
0
0
0
0
0
0
0
0
0
0
0
0
0
0
0
0
0
0
0
0
0
0
0
0
0
0
0
0
0
0
0
0
0
0
0
0
0
0
0
0
0
0
0
0
0
0
0
0
0
0
0
0
0
0
0
0
0
0
0
0
0
0
0
0
0
0
0
0
0
0
0
0
0
0
0
0
0
0
0
0
0
0
0
0
0
0
0
0
0
0
0
0
0
0
0
0
0
0
0
0
0
0
0
0
0
0
0
0
0
0
0
0
0
0
0
0
0
0
0
0
0
0
0
0
0
0
0
0
0
0
0
0
0
0
0
0
0
0
0
0
0
0
0
0
0
0
0
0
0
0
0
0
0
0
0
0
0
0
0
0
0
0
0
0
0
0
0
0
0
0
0
0
0
0
0
0
0
0
0
0
0
0
0
0
0
0
0
0
0
0
0
0
0
0
0
0
0
0
0
0
0
0
0
0
0
0
0
0
0
0
0
0
0
0
0
0
0
0
0
0
0
0
0
0
0
0
0
0
0
0
0
0
0
0
0
0
0
0
0
0
0
0
0
0
0
0
0
0
0
0
0
0
0
0
0
0
0
0
0
0
0
0
0
0
0
0
0
0
0
0
0
0
0
0
0
0
0
0
0
0
0
0
0
0
0
0
0
0
0
0
0
0
0
0
0
0
0
0
0
0
0
0
0
0
0
0
0
0
0
0
0
0
0
0
0
0
0
0
0
0
0
0
0
0
0
0
0
0
0
0
0
0
0
0
0
0
0
0
0
0
0
0
0
0
0
0
0
0
0
0
0
0
0
0
0
0
0
0
0
0
0
0
0
0
0
0
0
0
0
0
0
0
0
0
0
0
0
0
0
0
0
0
0
0
0
0
0
0
0
0
0
0
0
0
0
0
0
0
0
0
0
0
0
0
0
0
0
0
0
0
0
0
0
0
0
0
0
0
0
0
0
0
0
0
0
0
0
0
0
0
0
0
0
0
0
0
0
0
0
0
0
0
0
0
0
0
0
0
0
0
0
0
0
0
0
0
0
0
0
0
0
0
0
0
0
0
0
0
0
0
0
0
0
0
0
0
0
0
0
0
0
0
0
0
0
0
0
0
0
0
0
0
0
0
0
0
0
0
0
0
0
0
0
0
0
0
0
0
0
0
0
0
0
0
0
0
0
0
0
0
0
0
0
0
0
0
0
0
0
0
0
0
0
0
0
0
0
0
0
0
0
0
0
0
0
0
0
0
0
0
0
0
0
0
0
0
0
0
0
0
0
0
0
0
0
0
0
0
0
0
0
0
0
0
0
0
0
0
0
0
0
0
0
0
0
0
0
0
0
0
0
0
0
0
0
0
0
0
0
0
0
0
0
0
0
0
0
0
0
0
0
0
0
0
0
0
0
0
0
0
0
0
0
0
0
0
0
0
0
0
0
0
0
0
0
0
0
0
0
0
0
0
0
0
0
0
0
0
0
0
0
0
0
0
0
0
0
0
0
0
0
0
0
0
0
0
0
0
0
0
0
0
0
0
0
0
0
0
0
0
0
0
0
0
0
0
0
0
0
0
0
0
0
0
0
0
0
0
0
0
0
0
0
0
0
0
0
0
0
0
0
0
0
0
0
0
0
0
0
0
0
0
0
0
0
0
0
0
0
0
0
0
0
0
0
0
0
0
0
0
0
0
0
0
0
0
0
0
0
0
0
0
0
0
0
0
0
0
0
0
0
0
0
0
0
0
0
0
0
0
0
0
0
0
0
0
0
0
0
0
0
0
0
0
0
0
0
0
0
0
0
0
0
0
0
0
0
0
0
0
0
0
0
0
0
0
0
0
0
0
0
0
0
0
0
0
0
0
0
0
0
0
0
0
0
0
0
0
0
0
0
0
0
0
0
0
0
0
0
0
0
0
0
0
0
0
0
0
0
0
0
0
0
0
0
0
0
0
0
0
0
0
0
0
0
0
0
0
0
0
0
0
0
0
0
0
0
0
0
0
0
0
0
0
0
0
0
0
0
0
0
0
0
0
0
0
0
0
0
0
0
0
0
0
0
0
0
0
0
0
0
0
0
0
0
0
0
0
0
0
0
0
0
0
0
0
0
0
0
0
0
0
0
0
0
0
0
0
0
0
0
0
0
0
0
0
0
0
0
0
0
0
0
0
0
0
0
0
0
0
0
0
0
0
0
0
0
0
0
0
0
0
0
0
0
0
0
0
0
0
0
0
0
0
0
0
0
0
0
0
0
0
0
0
0
0
0
0
0
0
0
0
0
0
0
0
0
0
0
0
0
0
0
0
0
0
0
0
0
0
0
0
0
0
0
0
0
0
0
0
0
0
0
0
0
0
0
0
0
0
0
0
0
0
0
0
0
0
0
0
0
0
0
0
0
0
0
0
0
0
0
0
0
0
0
0
0
0
0
0
0
0
0
0
0
0
0
0
0
0
0
0
0
0
0
0
0
0
0
0
0
0
0
0
0
0
0
0
0
0
0
0
0
0
0
0
0
0
0
0
0
0
0
0
0
0
0
0
0
0
0
0
0
0
0
0
0
0
0
0
0
0
0
0
0
0
0
0
0
0
0
0
0
0
0
0
0
0
0
0
0
0
0
0
0
0
0
0
0
0
0
0
0
0
0
0
0
0
0
0
0
0
0
0
0
0
0
0
0
0
0
0
0
0
0
0
0
0
0
0
0
0
0
0
0
0
0
0
0
0
0
0
0
0
0
0
0
0
0
0
0
0
0
0
0
0
0
0
0
0
0
0
0
0
0
0
0
0
0
0
0
0
0
0
0
0
0
0
0
0
0
0
0
0
0
0
0
0
0
0
0
0
0
0
0
0
0
0
0
0
0
0
0
0
0
0
0
0
0
0
0
0
0
0
0
0
0
0
0
0
0
0
0
0
0
0
0
0
0
0
0
0
0
0
0
0
0
0
0
0
0
0
0
0
0
0
0
0
0
0
0
0
0
0
0
0
0
0
0
0
0
0
0
0
0
0
0
0
0
0
0
0
0
0
0
0
0
0
0
0
0
0
0
0
0
0
0
0
0
0
0
0
0
0
0
0
0
0
0
0
0
0
0
0
0
0
0
0
0
0
0
0
0
0
0
0
0
0
0
0
0
0
0
0
0
0
0
0
0
0
0
0
0
0
0
0
0
0
0
0
0
0
0
0
0
0
0
0
0
0
0
0
0
0
0
0
0
0
0
0
0
0
0
0
0
0
0
0
0
0
0
0
0
0
0
0
0
0
0
0
0
0
0
0
0
0
0
0
0
0
0
0
0
0
0
0
0
0
0
0
0
0
0
0
0
0
0
0
0
0
0
0
0
0
0
0
0
0
0
0
0
0
0
0
0
0
0
0
0
0
0
0
0
0
0
0
0
0
0
0
0
0
0
0
0
0
0
0
0
0
0
0
0
0
0
0
0
0
0
0
0
0
0
0
0
0
0
0
0
0
0
0
0
0
0
0
0
0
0
0
0
0
0
0
0
0
0
0
0
0
0
0
0
0
0
0
0
0
0
0
0
0
0
0
0
0
0
0
0
0
0
0
0
0
0
0
0
0
0
0
0
0
0
0
0
0
0
0
0
0
0
0
0
0
0
0
0
0
0
0
0
0
0
0
0
0
0
0
0
0
0
0
0
0
0
0
0
0
0
0
0
0
0
0
0
0
0
0
0
0
0
0
0
0
0
0
0
0
0
0
0
0
0
0
0
0
0
0
0
0
0
0
0
0
0
0
0
0
0
0
0
0
0
0
0
0
0
0
0
0
0
0
0
0
0
0
0
0
0
0
0
0
0
0
0
0
0
0
0
0
0
0
0
0
0
0
0
0
0
0
0
0
0
0
0
0
0
0
0
0
0
0
0
0
0
0
0
0
0
0
0
0
0
0
0
0
0
0
0
0
0
0
0
0
0
0
0
0
0
0
0
0
0
0
0
0
0
0
0
0
0
0
0
0
0
0
0
0
0
0
0
0
0
0
0
0
0
0
0
0
0
0
0
0
0
0
0
0
0
0
0
0
0
0
0
0
0
0
0
0
0
0
0
0
0
0
0
0
0
0
0
0
0
0
0
0
0
0
0
0
0
0
0
0
0
0
0
0
0
0
0
0
0
0
0
0
0
0
0
0
0
0
0
0
0
0
0
0
0
0
0
0
0
0
0
0
0
0
0
0
0
0
0
0
0
0
0
0
0
0
0
0
0
0
0
0
0
0
0
0
0
0
0
0
0
0
0
0
0
0
0
0
0
0
0
0
0
0
0
0
0
0
0
0
0
0
0
0
0
0
0
0
0
0
0
0
0
0
0
0
0
0
0
0
0
0
0
0
0
0
0
0
0
0
0
0
0
0
0
0
0
0
0
0
0
0
0
0
0
0
0
0
0
0
0
0
0
0
0
0
0
0
0
0
0
0
0
0
0
0
0
0
0
0
0
0
0
0
0
0
0
0
0
0
0
0
0
0
0
0
0
0
0
0
0
0
0
0
0
0
0
0
0
0
0
0
0
0
0
0
0
0
0
0
0
0
0
0
0
0
0
0
0
0
0
0
0
0
0
0
0
0
0
0
0
0
0
0
0
0
0
0
0
0
0
0
0
0
0
0
0
0
0
0
0
0
0
0
0
0
0
0
0
0
0
0
0
0
0
0
0
0
0
0
0
0
0
0
0
0
0
0
0
0
0
0
0
0
0
0
0
0
0
0
0
0
0
0
0
0
0
0
0
0
0
0
0
0
0
0
0
0
0
0
0
0
0
0
0
0
0
0
0
0
0
0
0
0
0
0
0
0
0
0
0
0
0
0
0
0
0
0
0
0
0
0
0
0
0
0
0
0
0
0
0
0
0
0
0
0
0
0
0
0
0
0
0
0
0
0
0
0
0
0
0
0
0
0
0
0
0
0
0
0
0
0
0
0
0
0
0
0
0
0
0
0
0
0
0
0
0
0
0
0
0
0
0
0
0
0
0
0
0
0
0
0
0
0
0
0
0
0
0
0
0
0
0
0
0
0
0
0
0
0
0
0
0
0
0
0
0
0
0
0
0
0
0
0
0
0
0
0
0
0
0
0
0
0
0
0
0
0
0
0
0
0
0
0
0
0
0
0
0
0
0
0
0
0
0
0
0
0
0
0
0
0
0
0
0
0
0
0
0
0
0
0
0
0
0
0
0
0
0
0
0
0
0
0
0
0
0
0
0
0
0
0
0
0
0
0
0
0
0
0
0
0
0
0
0
0
0
0
0
0
0
0
0
0
0
0
0
0
0
0
0
0
0
0
0
0
0
0
0
0
0
0
0
0
0
0
0
0
0
0
0
0
0
0
0
0
0
0
0
0
0
0
0
0
0
0
0
0
0
0
0
0
0
0
0
0
0
0
0
0
0
0
0
0
0
0
0
0
0
0
0
0
0
0
0
0
0
0
0
0
0
0
0
0
0
0
0
0
0
0
0
0
0
0
0
0
0
0
0
0
0
0
0
0
0
0
0
0
0
0
0
0
0
0
0
0
0
0
0
0
0
0
0
0
0
0
0
0
0
0
0
0
0
0
0
0
0
0
0
0
0
0
0
0
0
0
0
0
0
0
0
0
0
0
0
0
0
0
0
0
0
0
0
0
0
0
0
0
0
0
0
0
0
0
0
0
0
0
0
0
0
0
0
0
0
0
0
0
0
0
0
0
0
0
0
0
0
0
0
0
0
0
0
0
0
0
0
0
0
0
0
0
0
0
0
0
0
0
0
0
0
0
0
0
0
0
0
0
0
0
0
0
0
0
0
0
0
0
0
0
0
0
0
0
0
0
0
0
0
0
0
0
0
0
0
0
0
0
0
0
0
0
0
0
0
0
0
0
0
0
0
0
0
0
0
0
0
0
0
0
0
0
0
0
0
0
0
0
0
0
0
0
0
0
0
0
0
0
0
0
0
0
0
0
0
0
0
0
0
0
0
0
0
0
0
0
0
0
0
0
0
0
0
0
0
0
0
0
0
0
0
0
0
0
0
0
0
0
0
0
0
0
0
0
0
0
0
0
0
0
0
0
0
0
0
0
0
0
0
0
0
0
0
0
0
0
0
0
0
0
0
0
0
0
0
0
0
0
0
0
0
0
0
0
0
0
0
0
0
0
0
0
0
0
0
0
0
0
0
0
0
0
0
0
0
0
0
0
0
0
0
0
0
0
0
0
0
0
0
0
0
0
0
0
0
0
0
0
0
0
0
0
0
0
0
0
0
0
0
0
0
0
0
0
0
0
0
0
0
0
0
0
0
0
0
0
0
0
0
0
0
0
0
0
0
0
0
0
0
0
0
0
0
0
0
0
0
0
0
0
0
0
0
0
0
0
0
0
0
0
0
0
0
0
0
0
0
0
0
0
0
0
0
0
0
0
0
0
0
0
0
0
0
0
0
0
0
0
0
0
0
0
0
0
0
0
0
0
0
0
0
0
0
0
0
0
0
0
0
0
0
0
0
0
0
0
0
0
0
0
0
0
0
0
0
0
0
0
0
0
0
0
0
0
0
0
0
0
0
0
0
0
0
0
0
0
0
0
0
0
0
0
0
0
0
0
0
0
0
0
0
0
0
0
0
0
0
0
0
0
0
0
0
0
0
0
0
0
0
0
0
0
0
0
0
0
0
0
0
0
0
0
0
0
0
0
0
0
0
0
0
0
0
0
0
0
0
0
0
0
0
0
0
0
0
0
0
0
0
0
0
0
0
0
0
0
0
0
0
0
0
0
0
0
0
0
0
0
0
0
0
0
0
0
0
0
0
0
0
0
0
0
0
0
0
0
0
0
0
0
0
0
0
0
0
0
0
0
0
0
0
0
0
0
0
0
0
0
0
0
0
0
0
0
0
0
0
0
0
0
0
0
0
0
0
0
0
0
0
0
0
0
0
0
0
0
0
0
0
0
0
0
0
0
0
0
0
0
0
0
0
0
0
0
0
0
0
0
0
0
0
0
0
0
0
0
0
0
0
0
0
0
0
0
0
0
0
0
0
0
0
0
0
0
0
0
0
0
0
0
0
0
0
0
0
0
0
0
0
0
0
0
0
0
0
0
0
0
0
0
0
0
0
0
0
0
0
0
0
0
0
0
0
0
0
0
0
0
0
0
0
0
0
0
0
0
0
0
0
0
0
0
0
0
0
0
0
0
0
0
0
0
0
0
0
0
0
0
0
0
0
0
0
0
0
0
0
0
0
0
0
0
0
0
0
0
0
0
0
0
0
0
0
0
0
0
0
0
0
0
0
0
0
0
0
0
0
0
0
0
0
0
0
0
0
0
0
0
0.997659873173
0.997945330325
0.998211153223
0.998479015965
0.998703742434
0.998909070385
0.999095141781
0.999262116196
0.999410207052
0.999539691601
0.99965094279
0.999744443782
0.999820851669
0.999882419133
0.999927622542
0.999958258508
0.999979077517
0.999990790192
0.999995972624
0.999998869393
0.999999818956
1
1
1
1
0.997725932499
0.998010302496
0.998298817336
0.998541676912
0.998764897517
0.998968544368
0.999152723893
0.999317560365
0.999463221391
0.999589934656
0.999698003797
0.9997878435
0.999860028876
0.999916851686
0.999956387101
0.999981716086
0.999994800269
0.999999722478
1
1
1
1
1
1
1
0.997778535218
0.998062009545
0.998349789186
0.998591524919
0.998813488703
0.999015720745
0.999198300342
0.999361313902
0.999504885517
0.999629183666
0.999734443023
0.999820985767
0.999889279215
0.99994155419
0.999975465072
0.999994161242
0.999999988309
1
1
1
1
1
1
1
1
0.997817793991
0.998127094463
0.998387874305
0.998628740677
0.998849722932
0.999050857216
0.999232181626
0.999393752696
0.999535661472
0.999658021892
0.999760992761
0.999844807282
0.999909810188
0.999958107138
0.999986897983
0.999999221565
1
1
1
1
1
1
0.997872724365
0.998152943949
0.99841319411
0.998653467818
0.998873782367
0.999074159706
0.999254615277
0.999415194477
0.999555944542
0.999676939538
0.999778288312
0.999860143718
0.999922742389
0.999968073863
0.999992862184
1
1
1
1
0.997885871082
0.998165850192
0.998425832318
0.998665805382
0.998885780866
0.999085773036
0.999265787358
0.999425856721
0.999566011542
0.999686303002
0.999786806457
0.999867635778
0.999931100257
0.999972758876
0.99999529167
1
1
1
1
1
1
1
1
1
1
1
1
1
1
1
1
1
1
1
1
1
1
1
1
1
1
1
1
1
1
1
1
1
1
1
1
1
1
1
1
1
1
1
1
1
1
1
1
1
1
1
1
1
1
1
1
1
1
1
1
1
1
1
0.99762388049
0.997909912979
0.998176367598
0.998446530798
0.998672437023
0.9988758513
0.999062924037
0.999231022811
0.999380379454
0.999511297601
0.999624172075
0.999719519126
0.999798263145
0.999861741154
0.999910224525
0.999945223628
0.997572617086
0.997889659013
0.998155345755
0.998401590887
0.998628496744
0.998836192571
0.999024826301
0.999194587153
0.999345736736
0.999478590225
0.999586963062
0.99968582448
0.999767943911
0.999834204967
0.999885740209
0.999923995036
0.999950739199
0.999970682446
0.999968668723
0.999982883292
0.999991457559
0.999996110841
0.9999988824
0.999999846777
1
1
1
0.999982179834
0.999990393888
0.999995383017
0.999997834909
0.999998921803
0.999999915197
1
0.9976900648
0.997975030203
0.998265872924
0.998509875855
0.998731031044
0.998935622252
0.999120865074
0.999286903964
0.999433936674
0.999562217666
0.999672092676
0.999768475262
0.999842921691
0.999900770538
0.999943184039
0.999970685555
0.999988264859
0.999996807864
0.999999875354
1
1
1
1
1
1
0.997671605528
0.997955735189
0.998220248919
0.998465199115
0.998690670791
0.998896770579
0.99907559336
0.999243250482
0.999392116415
0.999522523917
0.99964275177
0.999737146844
0.999814473412
0.999875611263
0.99991959483
0.99995312085
0.999975046199
0.999989613182
0.999996687477
0.999999509061
1
1
1
1
1
0.997742770329
0.998054820862
0.998317479653
0.99855698947
0.998779829839
0.998983048611
0.999166745722
0.999331033366
0.9994760681
0.999602059335
0.997725254048
0.998008500523
0.998272041764
0.998515913337
0.998740185662
0.998936676469
0.999121885947
0.999287882447
0.999443356322
0.999571496569
0.999681107545
0.999772631081
0.999714023607
0.999802761127
0.999873534479
0.999927089854
0.999964507179
0.99998738001
0.999998048162
1
1
1
1
1
1
1
1
0.999846660782
0.99990403141
0.999945894582
0.999973871964
0.999989609306
0.999998388062
1
1
1
1
1
1
1
1
1
0.997812529271
0.998094280539
0.998352669594
0.998594340251
0.998816225624
0.999018380678
0.999200866402
0.999363769028
0.99950721772
0.999631375719
0.9997364644
0.999827564319
0.999895238721
0.999945073247
0.999978010899
0.999995524488
1
1
1
1
1
1
1
1
1
0.997765515582
0.998048083211
0.998310871727
0.998553907038
0.998768732693
0.998972273645
0.999156324003
0.99932101974
0.999466519515
0.99960169372
0.999709274355
0.999798432911
0.999869703274
0.99992384556
0.999961958408
0.999985645247
0.999997234407
1
1
1
1
1
1
1
1
1
1
1
1
1
0.997839421061
0.998120695575
0.998378067007
0.998619159456
0.998840395682
0.999041817538
0.999223465136
0.999385416688
0.999527761596
0.999650629925
0.999759426389
0.999843683331
0.999909083089
0.999956130207
0.99998561495
0.999998825225
1
1
1
1
1
1
1
1
1
0.997792479442
0.998074580976
0.998336855676
0.998570560672
0.998793053456
0.998995892632
0.999179149681
0.999342943139
0.999496536861
0.999621677694
0.99972781144
0.999815272824
0.999884533862
0.999936284787
0.99997155016
0.999991880885
0.999999636159
1
1
1
1
1
1
1
1
1
1
1
0.997853107902
0.998130024351
0.998390744319
0.998631543755
0.998852450409
0.999053499127
0.999234721613
0.999396184492
0.999537962755
0.999660167417
0.999768465842
0.999851719578
0.99991589606
0.999961418494
0.999988975794
0.999999715009
1
1
1
1
1
1
1
1
1
0.997806203448
0.998088065565
0.998341077559
0.998583008932
0.998805184798
0.999007667117
0.999190519875
0.999353852129
0.999507276935
0.99963176748
0.999737137869
0.999823696887
0.999891879825
0.999942330599
0.999976025592
0.999994465359
0.999999998652
1
1
1
1
1
1
1
1
1
1
1
1
1
1
1
1
1
1
1
1
1
1
1
1
1
1
1
1
1
1
1
1
1
1
1
1
1
1
1
1
1
1
1
1
1
1
1
1
1
1
1
1
1
1
1
1
1
1
1
1
1
1
1
1
1
1
1
1
1
1
1
1
1
1
1
1
1
1
1
1
1
1
1
1
1
1
1
1
1
1
1
1
1
1
1
1
1
1
1
1
1
1
1
1
1
1
1
1
1
1
1
1
1
1
1
1
1
1
1
1
1
1
1
1
1
1
1
1
1
1
1
1
1
1
1
1
1
1
1
1
1
1
1
1
1
1
1
1
1
1
1
1
1
1
1
1
1
1
1
1
1
1
1
1
1
1
1
1
1
1
1
1
1
1
1
1
1
1
1
1
1
1
1
1
1
1
1
1
1
1
1
1
1
1
1
1
1
1
1
1
1
1
1
1
1
1
1
1
1
1
1
1
1
1
1
1
1
1
1
1
1
1
1
1
0.996235980774
0.996538074765
0.996821765038
0.99708721632
0.997334612488
0.997564168078
0.997776104897
0.997970681236
0.998148184901
0.998308934227
0.998481476385
0.998602829668
0.998745953456
0.998841171955
0.998946782533
0.999037387053
0.999113453682
0.999175461062
0.999223840459
0.999262764002
0.99929558647
0.999315612392
0.999357125873
0.999400549088
0.999424880209
0.996009781716
0.996313722183
0.996599348817
0.996866825616
0.997116329949
0.997348071751
0.99756226588
0.997759167454
0.99793904025
0.998129888611
0.998288995302
0.998410215487
0.998537956076
0.998661616321
0.998769727851
0.998862713052
0.99894099004
0.999004953198
0.999054975677
0.999097261551
0.99913131659
0.99915212634
0.999209334835
0.999247767227
0.999261802319
0.995766175463
0.99607195178
0.996359492513
0.996628957477
0.996880526137
0.997114390516
0.997330773289
0.997529906738
0.997712035258
0.997917246505
0.998055117677
0.998199608865
0.998337972607
0.998464028433
0.998574462808
0.998669632976
0.998749909657
0.998815637124
0.998867134777
0.998896896522
0.998947897883
0.998982494396
0.999036020608
0.999062023584
0.999090125246
0.99550498873
0.995812577621
0.996101999685
0.996373411351
0.996626984876
0.996862910971
0.997081391044
0.997282654101
0.997506257927
0.997686671506
0.997824060088
0.99797554235
0.998119861339
0.998248144864
0.998360711224
0.998457887423
0.99853999344
0.998607316603
0.998641394836
0.998691412225
0.998727222108
0.998788449218
0.998827205978
0.998870065073
0.998904277998
0.995226058832
0.995535428338
0.995826690596
0.99609999767
0.996355515706
0.996593425223
0.996813921122
0.997055910482
0.997255393128
0.997437928805
0.997603767351
0.997736921724
0.997883379257
0.998013736089
0.998128276401
0.998227289956
0.99831104995
0.998379817375
0.998415410257
0.998466583546
0.998503253997
0.99855632756
0.998614703908
0.998658687476
0.998694010861
0.994929234057
0.995240345268
0.995533400106
0.995808545519
0.996065940885
0.996305758052
0.996528181087
0.99678478529
0.99698628536
0.997170828384
0.997314973373
0.997479868313
0.997628326729
0.997760607645
0.997876970464
0.997977670488
0.998062947057
0.998133027639
0.998170077225
0.998222297191
0.998259741806
0.998323131768
0.99838279703
0.998435452151
0.998464133366
0.994927182349
0.995221977309
0.995498899937
0.995758102407
0.995999747633
0.996274754016
0.996495339361
0.996698751871
0.996853863124
0.99703738546
0.997204194708
0.99735452243
0.997488599408
0.99760664787
0.997708896059
0.99779555988
0.997845101914
0.997905312592
0.997958479354
0.997996623434
0.99807056929
0.998141261717
0.998185305879
0.998223087458
0.995170921056
0.995431858779
0.995675252052
0.995965008043
0.996187415073
0.996392642992
0.996555791249
0.996741154633
0.996909768369
0.99706183613
0.997197568731
0.997317175507
0.997420857995
0.997508793459
0.99756110857
0.997621033066
0.997675058762
0.997744317201
0.997798543984
0.997870652526
0.997915492573
0.997954102683
0.995395234829
0.995636735868
0.99581372067
0.996034964974
0.996239045538
0.996426144005
0.996596446785
0.996750142813
0.996887422773
0.997008468096
0.997113459074
0.997202563106
0.997246791147
0.997317164108
0.997371983028
0.997452256828
0.997519490631
0.997580402037
0.997635039888
0.997665342132
0.995474824475
0.99569775413
0.995903501541
0.996092234279
0.996264123162
0.996419340179
0.996558056022
0.996680437258
0.996786645157
0.996876824521
0.996922410457
0.996993679103
0.997049208255
0.99713126688
0.997208694511
0.997270461831
0.997326021492
0.997322755055
0.995549053201
0.995739324755
0.99591270145
0.996069339909
0.996209394663
0.996333015658
0.996440345544
0.996490337903
0.996578435447
0.996650527402
0.996706717106
0.996799879448
0.996878259221
0.996950421153
0.996997226545
0.996993477902
0.99536732927
0.995542101889
0.99570006953
0.995841372252
0.99596614527
0.996074516603
0.99612583562
0.996229929226
0.996305690858
0.996344477005
0.996448885667
0.996528141355
0.996601269501
0.996606098645
0.996644393068
0.995311468507
0.995453935568
0.995579780462
0.995635540432
0.995741742561
0.995848114589
0.99592460648
0.995984896806
0.996078254906
0.996168434533
0.996232349032
0.996236781699
0.99627548692
0.996306091446
0.99660757922
0.996890636268
0.997155421803
0.997402121783
0.99763095151
0.997842135636
0.998035935056
0.998212643075
0.998372583924
0.998543438716
0.998682775152
0.998806128415
0.998898998226
0.99900370262
0.999093428594
0.99916868359
0.999229966091
0.999277734074
0.99931442276
0.999346788963
0.999363293314
0.999407012939
0.999443355742
0.999467323677
0.996080303799
0.996383683724
0.996668724156
0.996935589097
0.997184457583
0.997415535216
0.997629055683
0.997825261671
0.998004426654
0.998193706119
0.998352032404
0.998493989154
0.998619956104
0.998720779495
0.99882811514
0.998920362023
0.99899795867
0.999061319527
0.999110836528
0.999150890716
0.999184575002
0.999201572229
0.99925451843
0.999292535691
0.999307611174
0.99583710685
0.996142363972
0.99642936427
0.99669826831
0.996949256452
0.997182523367
0.997398294023
0.99759680234
0.997778302933
0.997981983428
0.998118815104
0.998287190409
0.998399069847
0.998524433212
0.998634199047
0.998728742916
0.998808445517
0.998873667102
0.998924746854
0.998968124684
0.99900297081
0.999020362914
0.99908284305
0.999109880069
0.999142556611
0.995576324914
0.995883433537
0.996172357922
0.996443255506
0.99669630003
0.996931682245
0.997149611981
0.99735031642
0.997572477881
0.997752282745
0.997888700371
0.998038312277
0.99818201422
0.998309696607
0.998421688535
0.998518327532
0.998599944351
0.998666843531
0.99871930653
0.998748111002
0.998801856805
0.998837088418
0.998891824888
0.998919457063
0.998953400449
0.995297793321
0.995606719013
0.995897523333
0.996170359519
0.996425395324
0.996662813378
0.996882811269
0.997123428542
0.997322370479
0.997475543382
0.99764019558
0.997800598799
0.997946515154
0.998076348255
0.998190391469
0.998288941591
0.998372286571
0.998440692304
0.998473762995
0.99852465926
0.998561123039
0.998609753267
0.998662618034
0.998716690332
0.99874453623
0.995001358751
0.995312060138
0.995604693826
0.995879408038
0.996136363804
0.996375735063
0.996597708467
0.996852966147
0.997053980972
0.997238041025
0.997379987941
0.9975443949
0.997692376949
0.997824200278
0.997940131031
0.998040431725
0.998125350202
0.998195121263
0.998229626838
0.998281608183
0.998318877519
0.99837672413
0.998444414057
0.998487373411
0.998522735324
0.994686879296
0.99499930963
0.995293717389
0.995570245173
0.99582904681
0.996070287235
0.996344000836
0.996564150552
0.996767127705
0.996953140177
0.997103139338
0.997269515775
0.997419423567
0.997553099011
0.997670769958
0.997772671598
0.997859025798
0.997905922574
0.997965944885
0.998018906916
0.998056902653
0.998124175369
0.998194449721
0.998238318878
0.99827457825
0.994354222556
0.994668331082
0.994964454305
0.995242730516
0.995503302598
0.99574632812
0.996034811425
0.996256824953
0.996461661418
0.996622634243
0.996807603833
0.99697583237
0.997127528587
0.997262907628
0.997382181034
0.997485563847
0.997573230182
0.997622878631
0.997682649138
0.997736499833
0.997775149408
0.997865024492
0.997924803686
0.997969496263
0.99800657941
0.994003272311
0.994319005394
0.994616783321
0.994896736372
0.995159005004
0.995465925017
0.995707069442
0.99588189582
0.996102778315
0.99630650017
0.996493246076
0.996663205852
0.996816572168
0.996953539346
0.997074293764
0.997179019626
0.997267888568
0.997309493778
0.997379685453
0.997434344722
0.997492751482
0.997574684624
0.997635429486
0.997688491127
0.997688649294
0.993633917633
0.993951219756
0.994283637201
0.994579456165
0.994857471494
0.995117821371
0.995303560706
0.995543506318
0.995766108754
0.995971533056
0.996159949506
0.996331531915
0.9964864555
0.996624894375
0.99674701865
0.996852991213
0.996942965855
0.996985909738
0.997057013074
0.997112409818
0.997187410973
0.997264662959
0.997326285547
0.997380267809
0.997379997704
0.993263393495
0.993596735448
0.993912049351
0.994209451342
0.994489064876
0.994751020408
0.994995454874
0.995186364794
0.995410597193
0.995617628573
0.995807615805
0.995980718005
0.99613709459
0.996276903015
0.996400296222
0.996507419851
0.996554741939
0.996642667467
0.996714614224
0.996770685968
0.996856709372
0.996934935327
0.997005485508
0.997052196093
0.997051485944
0.992870230952
0.993205054863
0.993521872478
0.993820794352
0.99410193739
0.994365424464
0.994567225413
0.994810371308
0.995036149022
0.995244696933
0.995436161145
0.995610687335
0.995768420635
0.995909503612
0.996034074019
0.99614226239
0.996190894559
0.996294773849
0.996370401554
0.996409153564
0.996506349652
0.996585470009
0.996656986449
0.996664876985
0.996703100548
0.992458502066
0.992794755049
0.993113018587
0.993413397644
0.993696002671
0.993960949179
0.994170816488
0.994415443424
0.994642682371
0.994852661119
0.995045514311
0.995221375354
0.995380376481
0.995522646945
0.995648311049
0.995757486058
0.995807407591
0.995913583061
0.99598995632
0.996050151002
0.99613630214
0.996224845042
0.996241551325
0.996296193028
0.996334835874
0.996362088695
0.99666308265
0.996945618361
0.997209858233
0.997455986738
0.997684218332
0.997894782325
0.998087939117
0.998263989056
0.998423258341
0.998592597181
0.998731188435
0.998853797062
0.998960879196
0.999048410878
0.999137408216
0.999211983284
0.99927265672
0.999319909309
0.999354182542
0.999386468579
0.999402431702
0.999429835468
0.999475077598
0.99949066591
0.99613663675
0.996439558983
0.996724120137
0.996990482896
0.997238830118
0.997469367074
0.997682327753
0.99787796075
0.998056540368
0.998244402187
0.998402082441
0.998543390825
0.99866871753
0.998767355797
0.998874047124
0.998965680661
0.999042710584
0.999105567125
0.999154663813
0.999192589828
0.999225968372
0.999242447789
0.999277227323
0.999325811142
0.999341939723
0.995893773613
0.996198607084
0.996485166014
0.996753611368
0.99700412294
0.997236900185
0.997452163217
0.997650158422
0.997831145002
0.998033440069
0.998169335255
0.99833751332
0.998447239541
0.998572029653
0.998681249298
0.99877527363
0.998854500257
0.998919304108
0.998970034603
0.999011272037
0.9990458673
0.999062758126
0.99910522156
0.999152277115
0.999178264168
0.995633321387
0.995940038614
0.996228556849
0.996499034685
0.996751646624
0.996986585302
0.997204060967
0.997404302239
0.997625152505
0.997804456634
0.997939996444
0.998087853108
0.998231050459
0.998358239203
0.998469759626
0.998565955889
0.998647171416
0.998713716841
0.99876588965
0.998810408862
0.998846076943
0.998863295535
0.998913694787
0.998963453157
0.998990360065
0.995355114068
0.99566367827
0.995954109371
0.996226561396
0.996481203363
0.996718219717
0.99693781008
0.997140189378
0.997375665546
0.997527993511
0.997692215943
0.997850881204
0.997996356039
0.998125760131
0.998239396609
0.998337568625
0.998420570479
0.99848867919
0.998542149742
0.998569953586
0.99862653981
0.998644001071
0.998702541877
0.998754886404
0.998782602782
0.995058996919
0.995369364779
0.995661655564
0.995936018237
0.996192615411
0.996431622704
0.996653228594
0.996907246132
0.997107863405
0.997259502883
0.997431359929
0.997595370147
0.99774296329
0.997874413782
0.997989991958
0.998089965332
0.998174591095
0.998244108828
0.998276118757
0.99832790835
0.99836503554
0.998426387655
0.998483730392
0.998526529737
0.998560421421
0.994744827019
0.995056949768
0.995351042554
0.995627248756
0.99588572379
0.996126634093
0.996399149687
0.996618944631
0.996821566745
0.997007227139
0.99715511134
0.997321136609
0.997470703322
0.99760405229
0.997721414753
0.997823034095
0.997909135875
0.997953436214
0.998013312844
0.998066111033
0.998103984277
0.998176054998
0.998234598035
0.998278333041
0.998313112303
0.994412472943
0.994726297877
0.995022131788
0.995300112028
0.995560386497
0.995803112456
0.996090413225
0.996312106603
0.996516624305
0.996675489561
0.996860140519
0.997028055694
0.997179450743
0.997314542946
0.997433547821
0.997536682487
0.997624132268
0.997671156664
0.997730809781
0.997784519597
0.997823065425
0.997906072002
0.997965703005
0.998016238534
0.998019696895
0.994061814556
0.994377286203
0.99467479823
0.994954481953
0.995216477484
0.995522247211
0.99576310208
0.995986596869
0.996156417773
0.996359849942
0.996546310901
0.996715993356
0.996869092775
0.997005805296
0.997126323897
0.99723083483
0.997319512973
0.997369256961
0.997428568711
0.997483106078
0.997541344309
0.997616392907
0.997677008647
0.997728534955
0.997731630113
0.993692742007
0.994009803111
0.99430892949
0.994636686708
0.994914441024
0.995174528275
0.995417095555
0.995597846273
0.995820184972
0.996025348668
0.996213509842
0.996384844726
0.996539531165
0.996677746059
0.996799662412
0.996905446034
0.99699525188
0.997035583712
0.997106554621
0.997161845165
0.997222158846
0.99730697058
0.997374911207
0.997420921686
0.997423634824
0.993321645084
0.99365475675
0.993969836587
0.994267001575
0.994546376309
0.994808092141
0.995052287623
0.995241092482
0.995465086297
0.995671882818
0.995861640737
0.996034521543
0.996190686795
0.996330296327
0.996453505522
0.996560462339
0.996651304794
0.996692929295
0.996764759839
0.996820738657
0.996899684911
0.99697779209
0.997046768311
0.997058018095
0.997095721275
0.992928733923
0.993263345086
0.993579946964
0.993878651062
0.994159575239
0.994422843593
0.994622541272
0.99486546848
0.995091028259
0.995299364135
0.995490622148
0.995664949701
0.995822494139
0.995963399938
0.996087806793
0.996195847535
0.996241817259
0.9963455182
0.99642103889
0.99645977083
0.996549812843
0.99663570772
0.996698767005
0.996709712439
0.996747880732
0.992517247861
0.99285330403
0.993171368806
0.99347154766
0.993753952076
0.994018698577
0.994226461327
0.994470889094
0.994697930264
0.994907717248
0.995100384411
0.995276067038
0.995434898803
0.995577010958
0.995702529433
0.995811573095
0.995858813963
0.995964825359
0.996041104075
0.996078937624
0.996180214574
0.996267155232
0.996286946543
0.996341520816
0.996380115169
0.996404034819
0.996704651868
0.996986790482
0.997250612749
0.997496303094
0.997740700769
0.997949393058
0.998140684068
0.998314879522
0.998474709038
0.998629127631
0.998767147272
0.998889179661
0.998995694379
0.999081163994
0.999169603019
0.999243653668
0.999303856111
0.99935070963
0.999375536945
0.999409218113
0.999430460991
0.999453587466
0.999496067207
0.999516646972
0.996178839141
0.996481412207
0.996765607454
0.997031587524
0.997279535729
0.997526495013
0.997737637661
0.997903349747
0.998084404092
0.998282118785
0.998439303185
0.998580112742
0.998704939797
0.998801541394
0.998907740537
0.998998904559
0.999075499956
0.999137970121
0.999186742128
0.999214350184
0.999249552654
0.999271798662
0.999302113739
0.99934788342
0.999369464225
0.995936230322
0.996240741053
0.996526963295
0.996795058499
0.997045206823
0.997277608985
0.997476686968
0.997677275722
0.997895251761
0.998071739529
0.998231526421
0.998374944253
0.99848263852
0.998606995474
0.998715793606
0.998809424546
0.998888288067
0.998952771687
0.99900323505
0.999033608748
0.999070136924
0.999093255271
0.99913109603
0.999176528395
0.999202380351
0.995676029446
0.995982448488
0.996270657372
0.996540814752
0.996793096364
0.997027695882
0.997244825225
0.997468488939
0.997664383421
0.997843305682
0.998005534363
0.998151379398
0.998267106609
0.998393921606
0.998505083715
0.998600943871
0.998681853419
0.998748131024
0.998800081775
0.998833215889
0.998870908741
0.998894796388
0.99894043685
0.998988562534
0.999015359188
0.995398068944
0.995706358147
0.995996504884
0.996268664074
0.996523005583
0.99675971508
0.996978993761
0.997181058876
0.997415370206
0.997596582008
0.997761104033
0.997887879929
0.998033020911
0.998162101226
0.9982754294
0.998373314274
0.998456056533
0.99852393923
0.998560045911
0.998613108724
0.998651831392
0.998676386599
0.998730050953
0.998780750791
0.998812263138
0.995102193244
0.995412307546
0.995704337236
0.995978432381
0.996234756224
0.996473485646
0.996694810965
0.996947699946
0.997148015784
0.997331380103
0.997469175594
0.997632891067
0.997780191806
0.99791136049
0.998026672179
0.998126398765
0.998210802581
0.998280128227
0.998318950367
0.99837322226
0.998412861463
0.998453175617
0.99851037529
0.99855306333
0.998585533188
0.99478825867
0.995100147731
0.995394000834
0.995669962504
0.995928188695
0.996168847399
0.996440263989
0.996659789351
0.996862141601
0.99704753403
0.99719338322
0.997359144085
0.997508450321
0.997641556658
0.997758687479
0.997860093599
0.997946004485
0.998016632639
0.998058171408
0.998113529085
0.998153988494