/*--------------------------------*- C++ -*----------------------------------*\
| =========                 |                                                 |
| \\      /  F ield         | OpenFOAM: The Open Source CFD Toolbox           |
|  \\    /   O peration     | Version:  2406                                  |
|   \\  /    A nd           | Website:  www.openfoam.com                      |
|    \\/     M anipulation  |                                                 |
\*---------------------------------------------------------------------------*/
FoamFile
{
    version     2.0;
    format      ascii;
    arch        "LSB;label=32;scalar=64";
    class       volScalarField;
    location    "0.01";
    object      k;
}
// * * * * * * * * * * * * * * * * * * * * * * * * * * * * * * * * * * * * * //

dimensions      [0 2 -2 0 0 0 0];

internalField   nonuniform List<scalar> 
29768
(
0.237418107562
0.239879307128
0.239954201305
0.239957632931
0.239957782915
0.239957787792
0.239957784403
0.239957603547
0.239952599411
0.239801017986
0.230086576083
0.06763544627
0.239987373496
0.24
0.24
0.237418111609
0.239879276628
0.239954177621
0.239957610891
0.239957761009
0.239957765961
0.239957766064
0.239957743726
0.239957078793
0.239941982863
0.239482555276
0.228195151836
0.228893732186
0.23998737681
0.24
0.237418111705
0.239879275853
0.239954176756
0.239957610023
0.239957760142
0.239957765101
0.239957765222
0.239957765009
0.239957718266
0.239956693934
0.23993991822
0.239686383143
0.238699662177
0.201500420615
0.0795909582243
0.2374181117
0.239879276079
0.239954176733
0.239957609995
0.239957760114
0.239957765073
0.239957765203
0.239957765189
0.239957764403
0.23995771356
0.239956909539
0.239949169115
0.239932176568
0.239730399619
0.239072098113
0.237418111701
0.239879276061
0.239954176732
0.239957609994
0.239957760112
0.239957765071
0.239957765202
0.239957765204
0.239957765183
0.239957764739
0.239957734682
0.239957454215
0.239956943229
0.239952248242
0.239940239224
0.237418111698
0.239879275297
0.239954176727
0.239957609994
0.239957760112
0.23995776507
0.239957765202
0.239957765204
0.239957765203
0.239957765194
0.239957765275
0.239957757898
0.23995774412
0.23995761113
0.239957323093
0.237418111696
0.239879275259
0.239954176727
0.239957609994
0.239957760112
0.239957765071
0.239957765201
0.239957765204
0.239957765204
0.239957765202
0.239957765198
0.23995776505
0.23995776481
0.239957762743
0.239957778269
0.237418111804
0.239879276177
0.239954176735
0.239957609995
0.239957760112
0.23995776507
0.2399577652
0.239957765203
0.239957765204
0.239957765204
0.2399577652
0.2399577652
0.239957765226
0.239957766049
0.239957787903
0.237418111682
0.239879276137
0.239954176732
0.239957609993
0.239957760111
0.239957765067
0.239957765197
0.239957765199
0.239957765201
0.239957765202
0.239957765201
0.239957765202
0.239957765231
0.239957766103
0.239957788069
0.23741811166
0.239879275993
0.239954176631
0.239957609866
0.239957759981
0.239957764939
0.239957765067
0.239957765069
0.239957765071
0.239957765071
0.239957765071
0.239957765073
0.239957765101
0.239957765971
0.239957787934
0.2374181116
0.239879275718
0.239954172572
0.23995760497
0.239957755026
0.239957759981
0.239957760111
0.239957760112
0.239957760114
0.239957760113
0.239957760113
0.239957760114
0.239957760142
0.239957761012
0.239957782981
0.237418084681
0.23987925136
0.239954043159
0.239957456326
0.239957604978
0.239957609874
0.239957610001
0.239957610003
0.239957610003
0.239957610003
0.239957610002
0.239957610003
0.239957610032
0.239957610903
0.239957633003
0.237417927404
0.239878140354
0.239950904221
0.239954043265
0.239954172684
0.239954176743
0.239954176844
0.239954176843
0.23995417684
0.239954176846
0.239954176844
0.239954176847
0.23995417687
0.239954177727
0.239954201481
0.237410266941
0.239832389323
0.239878140788
0.239879251969
0.239879275725
0.239879276354
0.239879276395
0.239879276322
0.239879275676
0.239879276448
0.239879276417
0.239879276482
0.239879276342
0.239879276162
0.239879307533
0.237387253826
0.237410290878
0.237417920092
0.237418108493
0.237418111431
0.237418111483
0.237418106277
0.237418088096
0.237418111315
0.237418109978
0.237418091154
0.237418111047
0.237418110715
0.237418091716
0.237418107746
0.237417886422
0.239879287661
0.239954190361
0.239957622899
0.23995777295
0.239957777903
0.239957777871
0.239957770518
0.239957552051
0.239952253352
0.23980887296
0.223745179496
0.239987343088
0.24
0.24
0.237417866469
0.239879256779
0.239954166676
0.239957600864
0.239957751047
0.239957756008
0.239957756124
0.239957755197
0.239957728328
0.239957091204
0.239945757533
0.239778518463
0.22641683612
0.239987331186
0.24
0.237417866461
0.239879256288
0.239954165815
0.239957599996
0.23995775018
0.239957755142
0.239957755272
0.239957755234
0.239957753157
0.239957710354
0.239956972103
0.239948742586
0.239878101348
0.230184594815
0.227681768106
0.237417866459
0.239879256284
0.239954165789
0.239957599968
0.239957750152
0.239957755113
0.239957755244
0.239957755248
0.239957755184
0.239957752894
0.239957717496
0.239957297628
0.239954028841
0.239912629223
0.239871648273
0.237417866465
0.23987925629
0.239954165788
0.239957599967
0.23995775015
0.239957755112
0.239957755242
0.239957755247
0.239957755251
0.239957755204
0.239957753958
0.239957738021
0.239957603444
0.23995631483
0.239955602323
0.237417866468
0.239879256301
0.239954165789
0.239957599968
0.239957750151
0.239957755112
0.239957755242
0.239957755247
0.23995775525
0.239957755255
0.239957755238
0.23995775501
0.239957751251
0.23995771388
0.239957720472
0.237417866476
0.239879256312
0.23995416579
0.239957599968
0.239957750151
0.239957755112
0.239957755242
0.239957755249
0.239957755248
0.239957755249
0.239957755251
0.239957755252
0.239957755207
0.23995775561
0.239957777153
0.237417866589
0.239879256321
0.23995416579
0.239957599967
0.23995775015
0.239957755111
0.239957755241
0.239957755244
0.23995775525
0.239957755247
0.239957755247
0.239957755249
0.239957755278
0.23995775614
0.239957778073
0.237417866482
0.239879256325
0.239954165789
0.239957599965
0.239957750149
0.239957755109
0.239957755239
0.239957755241
0.239957755243
0.239957755248
0.239957755248
0.239957755245
0.239957755273
0.239957756142
0.23995777808
0.23741786643
0.239879256328
0.239954165689
0.239957599838
0.239957750019
0.23995775498
0.239957755109
0.239957755111
0.239957755112
0.239957755113
0.239957755112
0.239957755113
0.239957755141
0.239957756009
0.239957777946
0.23741786637
0.23987925591
0.239954161632
0.239957594944
0.239957745062
0.23995775002
0.239957750149
0.239957750151
0.239957750152
0.239957750152
0.239957750151
0.239957750153
0.23995775018
0.239957751049
0.239957772991
0.23741786327
0.239879231947
0.239954032178
0.239957446241
0.239957594956
0.239957599851
0.239957599978
0.23995759998
0.23995759998
0.23995759998
0.23995759998
0.239957599981
0.239957600009
0.239957600878
0.239957622952
0.237417682956
0.239878120584
0.239950892521
0.239954032321
0.239954161788
0.239954165846
0.239954165947
0.239954165948
0.239954165948
0.239954165948
0.239954165946
0.239954165947
0.239954165973
0.239954166836
0.239954190556
0.237410044337
0.239832363342
0.239878121145
0.239879232632
0.239879256574
0.239879257012
0.239879257018
0.239879257009
0.239879257002
0.239879257003
0.239879256987
0.23987925698
0.239879256981
0.239879257475
0.239879288359
0.237387005884
0.237410044575
0.237417683131
0.237417863598
0.237417866572
0.237417866654
0.237417866745
0.237417866656
0.237417866778
0.23741786676
0.237417866675
0.237417866759
0.237417866756
0.237417866688
0.237417886721
0.237417884024
0.239879287451
0.239954190154
0.239957622693
0.239957772746
0.239957777703
0.239957777826
0.239957777221
0.239957770474
0.239957580013
0.239953378372
0.239857964554
0.233631515122
0.239987335219
0.24
0.237417863945
0.23987925657
0.239954166474
0.239957600663
0.239957750846
0.239957755809
0.239957755943
0.239957755815
0.239957754745
0.239957733318
0.239957274398
0.239950007899
0.239817859551
0.227349692094
0.235342876785
0.237417863958
0.239879256077
0.239954165612
0.239957599795
0.239957749979
0.239957754942
0.239957755074
0.239957755077
0.239957754703
0.239957753299
0.239957723583
0.239957227574
0.239950520328
0.239839407699
0.23987834318
0.237417863982
0.239879256079
0.239954165587
0.239957599768
0.239957749951
0.239957754913
0.239957755045
0.23995775505
0.239957755049
0.239957754625
0.239957753312
0.239957730076
0.239957406141
0.23995413169
0.239955047482
0.237417864018
0.239879256085
0.239954165586
0.239957599766
0.23995774995
0.239957754911
0.239957755043
0.239957755047
0.239957755054
0.239957755056
0.239957754945
0.239957753852
0.239957742766
0.239957635313
0.239957686909
0.237417864055
0.239879256104
0.239954165587
0.239957599767
0.23995774995
0.239957754911
0.239957755042
0.239957755045
0.239957755049
0.239957755055
0.239957755064
0.239957755186
0.239957754766
0.239957752521
0.239957775229
0.23741786409
0.239879256119
0.239954165588
0.239957599767
0.23995774995
0.239957754911
0.239957755041
0.239957755045
0.239957755047
0.239957755049
0.239957755052
0.239957755059
0.239957755083
0.239957756059
0.239957777949
0.237417863507
0.23987925611
0.239954165587
0.239957599766
0.239957749949
0.23995775491
0.23995775504
0.239957755044
0.239957755049
0.239957755046
0.239957755047
0.239957755049
0.239957755078
0.239957755951
0.239957777888
0.237417863548
0.239879256118
0.239954165586
0.239957599764
0.239957749947
0.239957754908
0.239957755037
0.23995775504
0.239957755042
0.239957755044
0.239957755046
0.239957755045
0.239957755072
0.239957755943
0.239957777882
0.237417864072
0.239879256138
0.239954165487
0.239957599637
0.239957749818
0.239957754779
0.239957754908
0.23995775491
0.239957754911
0.239957754912
0.239957754912
0.239957754914
0.239957754942
0.23995775581
0.239957777749
0.237417864074
0.239879255724
0.239954161431
0.239957594742
0.239957744861
0.239957749818
0.239957749948
0.23995774995
0.239957749951
0.239957749951
0.23995774995
0.239957749952
0.23995774998
0.239957750849
0.239957772794
0.237417860646
0.23987923175
0.239954031969
0.239957446034
0.239957594753
0.239957599648
0.239957599776
0.239957599778
0.239957599778
0.239957599778
0.239957599778
0.239957599779
0.239957599807
0.239957600677
0.239957622753
0.237417680216
0.239878120382
0.239950892303
0.239954032101
0.239954161574
0.239954165633
0.239954165733
0.239954165734
0.239954165734
0.239954165734
0.239954165732
0.239954165733
0.239954165758
0.239954166622
0.239954190344
0.237410041712
0.239832363057
0.239878120848
0.239879232345
0.239879256304
0.239879256732
0.239879256717
0.239879256709
0.239879256701
0.239879256692
0.239879256678
0.239879256668
0.239879256668
0.239879257165
0.239879288053
0.237387003115
0.237410041831
0.237417680421
0.237417860852
0.237417864347
0.23741786433
0.237417863757
0.237417863729
0.237417863705
0.237417863679
0.237417863724
0.237417863698
0.237417863686
0.237417863689
0.2374178838
0.237417925333
0.239879290142
0.239954190969
0.239957623387
0.239957773431
0.239957778389
0.239957778503
0.239957777643
0.239957777266
0.239957772189
0.239957641376
0.23995509771
0.239913243259
0.238473492756
0.237557381433
0.237417905259
0.239879259256
0.23995416729
0.239957601359
0.239957751535
0.239957756496
0.239957756627
0.239957756397
0.239957755653
0.239957754932
0.239957740724
0.239957445206
0.239952598089
0.239861422282
0.239920540531
0.237417905261
0.239879258718
0.239954166425
0.239957600491
0.239957750668
0.23995775563
0.239957755766
0.239957755739
0.239957755078
0.239957754716
0.239957753772
0.239957735163
0.239957421977
0.239953974585
0.239955893711
0.237417905323
0.239879258737
0.239954166403
0.239957600464
0.23995775064
0.239957755602
0.239957755737
0.239957755718
0.239957755708
0.239957754882
0.239957754768
0.239957754109
0.239957740723
0.239957606683
0.239957699701
0.237417905406
0.239879258771
0.239954166403
0.239957600462
0.239957750639
0.2399577556
0.239957755731
0.23995775572
0.239957755728
0.239957755714
0.239957755239
0.239957755253
0.239957754495
0.239957751059
0.239957775135
0.237417905472
0.239879258782
0.239954166404
0.239957600463
0.239957750639
0.2399577556
0.239957755731
0.239957755725
0.23995775573
0.239957755726
0.239957755574
0.239957755595
0.23995775491
0.239957755552
0.239957777584
0.23741790554
0.239879258796
0.239954166405
0.239957600463
0.239957750639
0.2399577556
0.239957755729
0.239957755729
0.239957755731
0.239957755731
0.239957755726
0.239957755574
0.239957755641
0.239957756152
0.239957778333
0.237417904643
0.239879258762
0.239954166403
0.239957600462
0.239957750638
0.239957755599
0.239957755729
0.239957755732
0.239957755732
0.239957755728
0.239957755716
0.23995775569
0.239957755672
0.23995775662
0.239957778573
0.237417904728
0.239879258785
0.239954166411
0.239957600461
0.239957750636
0.239957755597
0.239957755726
0.239957755729
0.23995775573
0.239957755724
0.239957755723
0.239957755719
0.239957755719
0.239957756619
0.239957778562
0.237417905796
0.239879258808
0.239954166308
0.239957600338
0.239957750508
0.239957755468
0.239957755597
0.239957755599
0.2399577556
0.239957755599
0.239957755599
0.239957755602
0.239957755628
0.239957756499
0.239957778434
0.237417905926
0.239879258347
0.239954162245
0.239957595439
0.239957745551
0.239957750508
0.239957750637
0.239957750639
0.23995775064
0.23995775064
0.239957750639
0.239957750641
0.239957750669
0.239957751537
0.23995777348
0.237417902077
0.239879234378
0.23995403278
0.239957446726
0.239957595453
0.239957600346
0.239957600472
0.239957600474
0.239957600475
0.239957600475
0.239957600474
0.239957600476
0.239957600504
0.239957601373
0.239957623446
0.237417721689
0.239878123094
0.23995089323
0.239954032923
0.239954162397
0.239954166461
0.239954166555
0.239954166557
0.239954166557
0.239954166554
0.239954166555
0.239954166556
0.239954166581
0.239954167445
0.239954191162
0.237410083428
0.2398323669
0.239878123552
0.239879235063
0.239879259035
0.239879259455
0.239879259403
0.23987925942
0.239879259411
0.239879259362
0.239879259394
0.239879259388
0.239879259369
0.239879259888
0.239879290726
0.237387045451
0.237410083545
0.23741772187
0.237417902307
0.237417906185
0.237417905946
0.237417904925
0.237417904888
0.237417904839
0.237417904763
0.237417904871
0.237417904825
0.237417904773
0.237417904719
0.237417924785
0.237417882446
0.239879289528
0.239954190217
0.23995762271
0.239957772762
0.239957777732
0.239957778442
0.239957777783
0.239957777531
0.239957777284
0.239957774379
0.23995770947
0.23995669259
0.239946947402
0.239939720085
0.237417862317
0.239879258704
0.239954166526
0.23995760067
0.239957750851
0.239957755814
0.239957755984
0.239957755998
0.239957755818
0.239957755523
0.239957755207
0.239957748242
0.239957626971
0.239956298132
0.239956826605
0.237417862355
0.239879258323
0.23995416567
0.239957599801
0.239957749984
0.239957754961
0.239957755291
0.239957755116
0.239957755188
0.239957754913
0.239957754651
0.239957754215
0.239957746839
0.239957670625
0.239957732759
0.237417862422
0.23987925816
0.239954165637
0.239957599773
0.239957749956
0.239957754932
0.239957755243
0.239957755092
0.239957755676
0.23995775504
0.239957754936
0.239957754833
0.239957754355
0.239957752217
0.239957775778
0.237417862491
0.239879258331
0.239954165643
0.239957599771
0.239957749954
0.239957754916
0.239957755062
0.239957755058
0.239957755104
0.2399577557
0.239957755322
0.239957755098
0.239957754875
0.23995775543
0.239957777445
0.237417862562
0.239879258156
0.239954165637
0.239957599772
0.239957749954
0.239957754915
0.239957755049
0.239957755074
0.239957755092
0.239957755688
0.239957755576
0.239957755614
0.239957755054
0.239957755775
0.239957777769
0.23741786266
0.239879258352
0.239954165651
0.239957599773
0.239957749954
0.239957754916
0.239957755067
0.239957755655
0.239957755266
0.239957755116
0.239957755691
0.239957755574
0.239957755639
0.239957756256
0.23995777809
0.237417876025
0.239879257875
0.239954165653
0.239957599773
0.239957749954
0.239957754914
0.239957755046
0.239957755088
0.239957755272
0.239957755093
0.239957755112
0.239957755635
0.239957755198
0.239957755994
0.239957778088
0.237417862835
0.239879257818
0.239954166104
0.239957599811
0.239957749954
0.239957754912
0.239957755042
0.239957755047
0.239957755085
0.23995775565
0.239957755266
0.23995775509
0.239957755089
0.23995775595
0.23995777792
0.237417862941
0.239879257831
0.239954165764
0.23995759984
0.239957749841
0.239957754784
0.239957754912
0.239957754914
0.239957754917
0.239957754941
0.239957754932
0.239957754922
0.239957754949
0.239957755818
0.239957777752
0.237417863069
0.239879257921
0.239954161503
0.239957594768
0.239957744884
0.239957749827
0.239957749953
0.239957749954
0.239957749955
0.239957749956
0.239957749955
0.239957749956
0.239957749984
0.239957750853
0.239957772795
0.23741786012
0.239879232654
0.239954031991
0.239957446061
0.239957594957
0.239957599688
0.239957599786
0.239957599785
0.239957599784
0.239957599784
0.239957599782
0.239957599784
0.239957599813
0.239957600683
0.239957622756
0.237417679723
0.239878122632
0.239950892373
0.239954032123
0.239954161623
0.239954165887
0.239954165779
0.239954165805
0.239954165759
0.239954165756
0.239954165746
0.239954165752
0.239954165824
0.23995416669
0.239954190369
0.237410041216
0.239832363169
0.239878120922
0.239879232432
0.239879256392
0.239879257335
0.239879257079
0.239879258985
0.239879257054
0.239879256997
0.23987925678
0.239879256799
0.239879259025
0.23987925947
0.239879288399
0.237387002618
0.237410041331
0.237417679899
0.237417860317
0.237417863231
0.237417863148
0.23741787633
0.237417876304
0.237417876236
0.237417876154
0.237417862982
0.237417862907
0.237417862901
0.237417876164
0.237417896202
0.237417881481
0.239879289532
0.239954190203
0.239957622691
0.239957772744
0.239957777719
0.239957778452
0.239957778205
0.23995777808
0.239957777968
0.239957777807
0.239957776294
0.239957756701
0.239957567852
0.239957557561
0.237417861356
0.239879258706
0.239954166515
0.239957600658
0.239957750838
0.239957755804
0.239957755969
0.239957756
0.239957756307
0.239957756126
0.239957755989
0.239957755395
0.239957753522
0.239957734476
0.239957762146
0.237417861427
0.239879258412
0.239954165664
0.239957599791
0.239957749974
0.239957754951
0.239957755191
0.239957755103
0.239957755525
0.239957755458
0.23995775519
0.239957754672
0.239957754533
0.239957754324
0.239957776958
0.237417861488
0.239879258162
0.239954165627
0.239957599764
0.239957749946
0.23995775492
0.239957755042
0.239957755071
0.239957755693
0.239957755513
0.239957755387
0.239957754975
0.239957754711
0.239957755476
0.239957777655
0.237417861555
0.239879258373
0.239954165633
0.239957599763
0.239957749944
0.239957754907
0.239957755048
0.239957755044
0.239957755093
0.239957755717
0.239957755562
0.239957755093
0.239957754929
0.239957756028
0.239957778042
0.237417861641
0.239879258159
0.239954165627
0.239957599764
0.239957749945
0.239957754906
0.239957755039
0.239957755066
0.23995775508
0.239957755696
0.239957755734
0.239957755699
0.239957755475
0.239957756294
0.239957778257
0.237417861753
0.239879258391
0.239954165641
0.239957599765
0.239957749946
0.239957754906
0.239957755059
0.239957755657
0.239957755139
0.239957755099
0.239957755695
0.239957755731
0.239957755749
0.239957756486
0.239957777997
0.23741786865
0.23987925786
0.239954165646
0.239957599766
0.239957749946
0.239957754905
0.239957755036
0.239957755076
0.23995775518
0.23995775508
0.239957755092
0.239957755643
0.239957755187
0.239957755974
0.239957777984
0.237417861713
0.239879257823
0.239954166095
0.239957599799
0.239957749946
0.239957754904
0.239957755033
0.239957755038
0.239957755075
0.239957755655
0.239957755159
0.239957755068
0.239957755059
0.239957755932
0.239957777903
0.23741786195
0.239879257835
0.239954165615
0.239957599695
0.23995774983
0.239957754776
0.239957754904
0.239957754905
0.239957754909
0.239957754929
0.239957754919
0.239957754911
0.239957754936
0.239957755805
0.239957777743
0.237417862001
0.239879257982
0.239954161486
0.239957594746
0.239957744873
0.23995774982
0.239957749945
0.239957749946
0.239957749947
0.239957749947
0.239957749943
0.239957749944
0.239957749971
0.239957750841
0.239957772786
0.237417859054
0.239879232668
0.239954031982
0.239957446046
0.23995759479
0.239957599674
0.239957599777
0.239957599777
0.239957599775
0.239957599775
0.239957599773
0.239957599773
0.239957599802
0.239957600672
0.239957622749
0.237417678641
0.23987812266
0.239950892352
0.239954032102
0.239954161595
0.239954165689
0.239954165762
0.239954165793
0.239954165744
0.239954165744
0.239954165732
0.239954165739
0.239954165813
0.239954166678
0.23995419036
0.237410040135
0.239832363129
0.239878120851
0.239879232356
0.239879256309
0.239879256276
0.239879257021
0.239879258968
0.239879256972
0.239879256966
0.23987925672
0.239879256739
0.239879259064
0.239879259451
0.239879288375
0.237387001529
0.237410040255
0.237417678824
0.237417859232
0.237417862181
0.237417862242
0.237417869247
0.237417868813
0.23741786863
0.237417868859
0.237417862036
0.237417861952
0.237417861959
0.237417868353
0.237417888624
0.237417923255
0.239879290106
0.239954190958
0.239957623205
0.239957773239
0.23995777835
0.239957777903
0.239957777862
0.239957777838
0.239957777842
0.239957777899
0.239957777404
0.239957777148
0.239957775383
0.239957797452
0.237417903204
0.239879259166
0.23995416727
0.239957601223
0.239957751367
0.239957756475
0.239957756234
0.239957756343
0.239957755956
0.239957755942
0.239957756033
0.239957755548
0.239957755515
0.239957756131
0.239957778115
0.237417903232
0.239879256555
0.239954166361
0.239957600409
0.239957750642
0.239957755608
0.239957755209
0.239957755441
0.239957755086
0.239957755078
0.239957755211
0.239957754808
0.239957754762
0.239957755549
0.239957777662
0.237417903249
0.239879258635
0.239954166392
0.239957600434
0.239957750631
0.239957755583
0.23995775516
0.239957755406
0.239957755081
0.239957755053
0.239957755089
0.239957755229
0.239957754937
0.239957755658
0.239957777731
0.237417903291
0.23987925654
0.23995416634
0.23995760042
0.23995775063
0.239957755599
0.23995775571
0.239957755695
0.239957755674
0.239957755076
0.239957755067
0.239957755327
0.239957754993
0.239957755965
0.239957777942
0.237417903373
0.239879258639
0.239954166396
0.239957600456
0.239957750632
0.239957755594
0.239957755724
0.239957755705
0.239957755678
0.23995775509
0.239957755052
0.239957755069
0.239957755097
0.239957755948
0.239957777889
0.237417903424
0.239879256552
0.239954166353
0.239957600456
0.239957750625
0.239957755593
0.239957755711
0.239957755125
0.239957755147
0.239957755278
0.239957755068
0.239957755079
0.23995775552
0.239957755969
0.239957778065
0.237417870969
0.239879258158
0.23995416637
0.239957600456
0.239957750633
0.239957755593
0.239957755722
0.239957755687
0.239957755094
0.239957755321
0.239957755115
0.23995775562
0.239957755251
0.239957756073
0.239957778096
0.237417902625
0.23987925867
0.239954165698
0.239957600414
0.239957750631
0.239957755593
0.239957755721
0.239957755722
0.239957755682
0.239957755113
0.239957755208
0.239957755476
0.239957755129
0.239957756399
0.239957778247
0.237417903692
0.23987925863
0.239954165504
0.239957599743
0.239957750484
0.239957755463
0.239957755593
0.239957755593
0.239957755592
0.239957755569
0.239957755568
0.239957755569
0.239957755588
0.239957756455
0.239957778299
0.23741790371
0.239879256151
0.239954162152
0.239957595339
0.239957745521
0.239957750505
0.239957750633
0.239957750627
0.239957750621
0.239957750605
0.239957750524
0.239957750509
0.239957750498
0.2399577514
0.239957773307
0.237417900255
0.239879234217
0.239954032765
0.239957446679
0.239957594753
0.239957600296
0.239957600468
0.239957600468
0.239957600462
0.239957600448
0.239957600419
0.239957600384
0.239957600372
0.23995760128
0.239957623377
0.237417719855
0.239878120854
0.23995089317
0.239954032903
0.239954162321
0.239954165618
0.239954166513
0.239954166517
0.239954166542
0.23995416654
0.239954166543
0.239954166539
0.239954166518
0.239954167385
0.239954191146
0.237410081611
0.239832366858
0.239878123515
0.239879235013
0.239879258939
0.239879256703
0.239879258531
0.239879257275
0.23987925897
0.239879259105
0.239879259361
0.23987925933
0.239879257155
0.239879257362
0.239879290441
0.237387043624
0.237410081731
0.237417720046
0.23741790046
0.237417903931
0.23741790387
0.237417871554
0.237417871114
0.237417870941
0.237417871174
0.237417903214
0.237417903185
0.237417903111
0.237417870733
0.237417891004
0.237417881339
0.239879289358
0.239954190206
0.239957622714
0.239957772773
0.239957778065
0.239957777875
0.239957777855
0.239957777833
0.239957777837
0.239957777956
0.23995777763
0.239957777535
0.239957778261
0.239957800185
0.237417861372
0.239879258639
0.239954166534
0.239957600669
0.239957750887
0.239957756458
0.239957756235
0.239957756343
0.239957755947
0.239957755939
0.239957756087
0.23995775574
0.239957755747
0.239957756509
0.239957778425
0.237417861454
0.239879256141
0.239954166135
0.23995759982
0.239957750012
0.239957755594
0.239957755261
0.239957755212
0.239957755073
0.239957755072
0.239957755245
0.239957754983
0.239957754943
0.239957755766
0.239957777854
0.237417876252
0.23987925648
0.239954165626
0.239957599779
0.239957749985
0.239957755563
0.239957755264
0.239957755402
0.239957755059
0.239957755045
0.239957755085
0.239957755326
0.239957755091
0.239957755832
0.239957777909
0.237417877851
0.239879256376
0.23995416576
0.239957599788
0.239957749979
0.239957755182
0.239957755693
0.239957755694
0.239957755515
0.239957755052
0.23995775506
0.239957755329
0.239957755153
0.239957755996
0.239957777944
0.237417861767
0.239879257987
0.239954165648
0.239957599776
0.239957749963
0.239957754943
0.23995775512
0.239957755679
0.23995775552
0.239957755066
0.239957755044
0.23995775506
0.239957755093
0.239957755943
0.239957777887
0.237417861944
0.239879256154
0.239954166113
0.239957599788
0.239957749962
0.239957754944
0.239957755649
0.23995775511
0.239957755214
0.239957755279
0.239957755062
0.239957755075
0.239957755522
0.239957755962
0.239957778064
0.237417874914
0.239879258164
0.239954166162
0.239957599803
0.239957749959
0.239957754925
0.239957755094
0.239957755653
0.239957755146
0.239957755322
0.239957755127
0.239957755657
0.239957755333
0.239957756075
0.239957778097
0.237417861787
0.239879256478
0.239954165613
0.239957600214
0.239957749975
0.239957754917
0.239957755053
0.239957755084
0.239957755213
0.239957755073
0.239957755269
0.239957755442
0.239957755161
0.239957756393
0.239957778246
0.237417861638
0.239879256418
0.239954165564
0.239957599816
0.239957750263
0.239957754802
0.239957754917
0.239957754925
0.239957754938
0.239957755312
0.239957755543
0.239957754964
0.239957755058
0.239957755845
0.239957778046
0.237417861995
0.239879255749
0.239954161759
0.239957595318
0.23995774533
0.239957749846
0.239957749962
0.23995774996
0.239957749962
0.239957749994
0.239957750401
0.239957749999
0.239957750027
0.239957750855
0.239957772802
0.237417858742
0.239879233882
0.23995403255
0.239957446346
0.23995759483
0.239957600095
0.239957599804
0.239957599789
0.239957599791
0.23995759979
0.239957599822
0.239957599817
0.239957599819
0.239957600715
0.239957622779
0.237417678305
0.239878120385
0.239950892937
0.239954032172
0.239954161677
0.239954165712
0.239954166301
0.239954165766
0.23995416579
0.23995416579
0.239954165757
0.239954165774
0.239954165895
0.23995416715
0.239954190395
0.237410039811
0.239832363115
0.239878120964
0.239879232452
0.239879256409
0.239879257082
0.23987925853
0.239879256459
0.239879258907
0.23987925876
0.239879256836
0.239879258354
0.239879256751
0.239879257296
0.239879288997
0.237387001215
0.237410040047
0.237417678521
0.237417858929
0.237417862297
0.237417862279
0.237417875339
0.237417875132
0.237417875026
0.237417875069
0.237417861617
0.237417861676
0.237417861516
0.237417874268
0.237417894431
0.237417880897
0.239879289362
0.23995419019
0.239957622691
0.239957772751
0.23995777805
0.239957778501
0.239957778507
0.239957778519
0.239957778525
0.239957778507
0.239957778304
0.239957778175
0.239957778876
0.239957800583
0.237417860953
0.239879258644
0.239954166521
0.239957600636
0.239957750854
0.239957756464
0.239957756612
0.239957756423
0.239957756599
0.239957756628
0.23995775661
0.239957756315
0.239957756412
0.239957757177
0.239957779015
0.237417861056
0.239879258396
0.23995416614
0.239957599785
0.239957749997
0.239957755612
0.239957755709
0.239957755214
0.239957755741
0.239957755763
0.239957755756
0.239957755509
0.239957755479
0.239957756402
0.23995777845
0.237417874222
0.239879256212
0.23995416561
0.239957599763
0.239957749978
0.239957755577
0.239957755635
0.239957755525
0.239957755709
0.239957755734
0.239957755729
0.239957755682
0.239957755549
0.239957756353
0.239957778449
0.237417877244
0.239879258646
0.239954165757
0.239957599761
0.239957749969
0.239957755121
0.239957755707
0.239957755698
0.239957755551
0.239957755719
0.239957755732
0.239957755733
0.239957755636
0.239957756625
0.239957778567
0.237417860997
0.239879257993
0.239954165634
0.239957599764
0.239957749955
0.23995775493
0.239957755105
0.239957755699
0.239957755555
0.239957755716
0.239957755732
0.239957755736
0.239957755762
0.239957756632
0.239957778565
0.237417861285
0.239879257025
0.239954166115
0.239957599774
0.23995774995
0.239957754936
0.239957755671
0.239957755728
0.23995775568
0.239957755727
0.239957755711
0.239957755713
0.239957755741
0.239957756626
0.239957778465
0.237417900013
0.239879258695
0.239954166165
0.239957599788
0.239957749946
0.239957754918
0.239957755086
0.239957755693
0.239957755701
0.239957755704
0.239957755115
0.23995775508
0.239957755124
0.239957756577
0.239957778465
0.237417860794
0.239879256412
0.239954166136
0.239957600218
0.239957749963
0.239957754906
0.239957755045
0.239957755071
0.239957755167
0.239957755693
0.239957755639
0.2399577551
0.239957755083
0.239957756411
0.239957778528
0.237417861076
0.239879256418
0.239954166211
0.239957600267
0.239957750265
0.239957754788
0.239957754906
0.239957754917
0.239957754929
0.239957755305
0.239957755557
0.239957754933
0.239957754925
0.239957755827
0.239957778047
0.237417861214
0.239879257934
0.239954161764
0.239957595377
0.239957745332
0.239957749835
0.23995774995
0.239957749947