/*--------------------------------*- C++ -*----------------------------------*\
| =========                 |                                                 |
| \\      /  F ield         | OpenFOAM: The Open Source CFD Toolbox           |
|  \\    /   O peration     | Version:  2406                                  |
|   \\  /    A nd           | Website:  www.openfoam.com                      |
|    \\/     M anipulation  |                                                 |
\*---------------------------------------------------------------------------*/
FoamFile
{
    version     2.0;
    format      ascii;
    arch        "LSB;label=32;scalar=64";
    class       volScalarField;
    location    "0.01";
    object      nut;
}
// * * * * * * * * * * * * * * * * * * * * * * * * * * * * * * * * * * * * * //

dimensions      [0 2 -1 0 0 0 0];

internalField   nonuniform List<scalar> 
29768
(
0.00182266489398
0.0435669458299
0.122847005343
0.13425940226
0.134824618015
0.134843346422
0.134816805488
0.133856586709
0.112079060976
0.0189615529525
0.000362846541267
6.10832477263e-05
0.00438157654607
0.134831460674
0.134831460674
0.00182266490953
0.0435664546049
0.122846218285
0.1342593132
0.134824613159
0.134843861691
0.13484109206
0.134715123526
0.131217523674
0.0820425213503
0.00629663618852
0.000307052540067
0.00345729698672
0.00438168983149
0.00619715311542
0.0018226649099
0.0435664138474
0.12284617767
0.134259308787
0.134824613702
0.134843925977
0.134844238796
0.134835993835
0.134581524927
0.129241609877
0.0776052546571
0.0108246188188
0.00214953548202
0.00103965065095
0.000300947544203
0.00182266490988
0.0435664188856
0.12284617871
0.134259308819
0.134824613709
0.134843929965
0.134844437727
0.134844098351
0.134832513304
0.134555358512
0.130309138107
0.0994612023637
0.0616090362787
0.0137041355099
0.00550021448543
0.00182266490988
0.0435664323389
0.122846183772
0.134259309135
0.134824613722
0.13484393019
0.134844445962
0.134844446406
0.134844070609
0.134834419783
0.134668953237
0.133136180513
0.130015730075
0.110550542473
0.0850492808116
0.00182266490987
0.0435664517175
0.122846188609
0.134259309386
0.134824613734
0.134843930197
0.13484444629
0.134844457311
0.134844448076
0.13484419656
0.134839644187
0.134795276302
0.134708510513
0.134003839451
0.132594696152
0.00182266490986
0.0435664710457
0.122846192763
0.134259309583
0.134824613735
0.134843930194
0.134844446294
0.134844457654
0.134844457602
0.134844452319
0.134844354871
0.134843384567
0.134841689219
0.134825745039
0.134790816889
0.00182266491028
0.0435664766639
0.122846194685
0.134259309534
0.134824613528
0.134843929981
0.134844446081
0.134844457447
0.134844457656
0.134844457511
0.134844455728
0.13484443852
0.134844412619
0.134844135532
0.13484351417
0.00182266490981
0.0435664469215
0.122846181513
0.13425929827
0.134824602171
0.134843918614
0.134844434714
0.134844446081
0.134844446294
0.134844446296
0.134844446266
0.134844445923
0.134844445618
0.134844442102
0.13484444306
0.00182266490973
0.0435664487819
0.122845852133
0.134258795504
0.134824086626
0.13484340253
0.134843918613
0.134843929978
0.134843930192
0.134843930195
0.134843930194
0.13484393019
0.134843930197
0.134843930519
0.134843940621
0.0018226649095
0.0435662818359
0.122832844116
0.134239913433
0.134804787948
0.134824086601
0.13482460215
0.134824613495
0.134824613704
0.134824613699
0.134824613692
0.134824613684
0.134824613694
0.134824614256
0.134824628414
0.00182266480605
0.0435572797684
0.122430717417
0.133685319823
0.134239913435
0.134258795613
0.134259298456
0.134259309329
0.134259309444
0.134259309363
0.134259309247
0.134259309078
0.134259309055
0.134259313083
0.134259402451
0.00182266420168
0.0431519889033
0.113665512951
0.122430724997
0.122832849509
0.122845861432
0.122846191009
0.122846195844
0.122846194971
0.12284619502
0.122846193661
0.122846191313
0.12284619021
0.122846220807
0.122847009029
0.0018226347643
0.0311741574569
0.0431519996406
0.0435572973855
0.043566284361
0.0435664691276
0.0435664656242
0.0435664606237
0.0435664579049
0.0435664653688
0.0435664620471
0.0435664555672
0.0435664510109
0.0435664488504
0.0435669350739
0.00163687688247
0.00182263485629
0.00182266417358
0.00182266489756
0.00182266490884
0.00182266490904
0.00182266488904
0.00182266481917
0.0018226649084
0.00182266490326
0.00182266483092
0.00182266490737
0.00182266490609
0.00182266483309
0.00182266489468
0.0018226640442
0.0435665733626
0.122846578269
0.134259356568
0.134824621521
0.134843917469
0.134843496367
0.134805310305
0.133620127154
0.110184711058
0.0189963768602
0.00308834815117
6.96875561888e-06
0.134831460674
0.134831460674
0.00182266396752
0.0435660855795
0.122845795856
0.134259267849
0.134824607718
0.134843924034
0.134844334022
0.134839847089
0.134691999305
0.131232631007
0.0895174319747
0.0162574942397
0.00515178408425
0.00092526513918
0.00470648297263
0.00182266396749
0.0435660791207
0.122845763991
0.134259263852
0.134824607182
0.134843925607
0.134844435566
0.134844174234
0.134834788111
0.134596415943
0.130618732661
0.0986936612717
0.0346082990094
0.00643112176526
0.00263307768532
0.00182266396748
0.0435660811318
0.12284576268
0.134259263676
0.134824607165
0.134843925683
0.134844441648
0.13484444211
0.134844051845
0.134833541846
0.134637620206
0.132409354402
0.118361422623
0.0517843276454
0.0298294696959
0.0018226639675
0.0435660869306
0.122845765129
0.134259263866
0.134824607176
0.134843925669
0.13484444186
0.134844452937
0.134844441264
0.134844107329
0.134837474702
0.134753030998
0.134068885056
0.128016731331
0.123730455509
0.00182266396752
0.0435660926963
0.122845766745
0.134259263949
0.13482460718
0.13484392567
0.134844441844
0.134844453231
0.134844453189
0.13484444501
0.134844275596
0.134841991951
0.134821733619
0.134627707662
0.134519137099
0.00182266396755
0.0435660984409
0.122845769206
0.134259264137
0.134824607186
0.134843925667
0.134844441841
0.134844453212
0.13484445344
0.134844453308
0.134844449868
0.134844401825
0.134843957391
0.134839564792
0.134837795076
0.00182266396798
0.0435661034083
0.122845770866
0.134259264054
0.13482460698
0.134843925453
0.134844441627
0.134844452996
0.134844453213
0.134844453222
0.134844453194
0.134844452385
0.134844444604
0.134844366556
0.134844355646
0.00182266396757
0.0435661072431
0.122845765572
0.134259253148
0.134824595633
0.134843914085
0.134844430258
0.134844441627
0.134844441841
0.134844441848
0.134844441847
0.134844441859
0.134844441758
0.134844440931
0.134844450828
0.00182266396737
0.0435661085406
0.122845435449
0.134258750214
0.134824080011
0.134843397932
0.134843914088
0.134843925456
0.134843925669
0.134843925673
0.134843925672
0.134843925672
0.134843925681
0.134843926036
0.134843936243
0.00182266396714
0.0435659451457
0.122832430478
0.134239866699
0.13480477943
0.134824080071
0.134824595692
0.134824607041
0.134824607249
0.134824607252
0.134824607237
0.134824607229
0.134824607241
0.13482460781
0.134824621953
0.00182266395523
0.0435569372865
0.122430281221
0.133685236857
0.134239867424
0.134258751357
0.13425925426
0.134259265201
0.134259265304
0.134259265346
0.134259265018
0.13425926486
0.134259264901
0.134259269123
0.134259358238
0.00182266326233
0.0431516257381
0.11366487781
0.122430288124
0.12283243732
0.122845446187
0.122845776189
0.122845781663
0.122845780318
0.122845780452
0.122845776544
0.122845774509
0.122845774247
0.12284580868
0.122846594863
0.00182263390888
0.0311738894686
0.0431516275856
0.0435569357868
0.0435659401098
0.0435661070216
0.0435661061774
0.0435661020914
0.0435660979919
0.0435660956462
0.0435660887556
0.0435660838962
0.0435660808518
0.043566090558
0.0435665827731
0.00163691799625
0.00182263390979
0.001822663263
0.00182266395649
0.00182266396792
0.00182266396823
0.00182266396858
0.00182266396824
0.00182266396871
0.00182266396864
0.00182266396831
0.00182266396864
0.00182266396862
0.00182266396836
0.00182266404534
0.00182266403498
0.0435665542063
0.122846562856
0.1342593551
0.134824621668
0.134843935767
0.134844429647
0.134843427676
0.134806091704
0.133749817263
0.114039511758
0.0259507563154
0.00377479402142
0.00153455263699
0.00470635288183
0.00182266395782
0.043566067178
0.122845780991
0.134259266426
0.134824607608
0.134843925921
0.134844439771
0.134844341311
0.134840219637
0.134720582047
0.132237346294
0.103331329333
0.0221752339671
0.00231846502521
0.00519746662264
0.00182266395787
0.0435660600304
0.122845747565
0.13425926224
0.134824607022
0.134843925594
0.134844441653
0.134844446774
0.134844205438
0.134836938334
0.134673885997
0.132110869397
0.106332949031
0.0253371284569
0.0284167683243
0.00182266395796
0.0435660647562
0.12284574854
0.134259262304
0.134824607026
0.134843925589
0.134844441759
0.134844452907
0.134844443687
0.134844149062
0.134837155516
0.134713742503
0.133080693465
0.118749313384
0.120103480929
0.0018226639581
0.0435660715907
0.122845751567
0.134259262544
0.134824607039
0.134843925593
0.134844441765
0.134844453125
0.134844453086
0.134844444318
0.134844227162
0.13484016573
0.134782178644
0.134225688304
0.134303965285
0.00182266395824
0.043566078425
0.122845753437
0.134259262646
0.134824607045
0.134843925594
0.134844441771
0.134844453133
0.134844453339
0.134844453157
0.13484444797
0.134844347388
0.134842863347
0.134828364837
0.134831185588
0.00182266395838
0.0435660849604
0.122845756255
0.134259262865
0.134824607053
0.134843925591
0.134844441767
0.134844453135
0.134844453344
0.134844453342
0.134844453241
0.134844451291
0.134844421522
0.134844128704
0.134844212541
0.00182266395614
0.0435660908921
0.122845758069
0.13425926279
0.134824606847
0.134843925377
0.134844441553
0.134844452922
0.134844453137
0.134844453135
0.134844453128
0.134844453097
0.134844452649
0.134844448174
0.134844459736
0.0018226639563
0.0435660964749
0.122845753605
0.134259251941
0.134824595502
0.13484391401
0.134844430184
0.134844441553
0.134844441767
0.134844441771
0.134844441771
0.134844441764
0.134844441773
0.134844442068
0.134844452159
0.00182266395831
0.043566098259
0.122845423183
0.134258748959
0.134824079876
0.134843397853
0.134843914011
0.134843925379
0.134843925592
0.134843925596
0.134843925595
0.134843925595
0.134843925606
0.134843925975
0.134843936183
0.00182266395832
0.0435659352009
0.122832416768
0.134239865185
0.134804779207
0.134824079911
0.134824595535
0.134824606883
0.134824607089
0.134824607085
0.134824607073
0.134824607064
0.134824607076
0.134824607646
0.134824621788
0.00182266394514
0.0435569282399
0.122430267845
0.133685234177
0.134239865815
0.134258749738
0.134259252653
0.13425926357
0.134259263631
0.134259263521
0.134259263283
0.134259263109
0.134259263133
0.134259267358
0.134259356433
0.0018226632518
0.0431516165583
0.113664857611
0.122430273967
0.122832423671
0.122845431782
0.122845761794
0.122845766986
0.122845765125
0.122845763466
0.122845760478
0.122845758192
0.122845757642
0.122845792163
0.122846577831
0.00182263389879
0.0311738834645
0.0431516149136
0.0435569266226
0.043565930892
0.0435660963772
0.0435660951251
0.0435660902459
0.043566085031
0.0435660798963
0.0435660733855
0.0435660675657
0.043566063656
0.0435660732401
0.0435665646527
0.00163692770276
0.00182263389925
0.00182266325259
0.00182266394594
0.00182266395937
0.0018226639593
0.0018226639571
0.00182266395699
0.0018226639569
0.0018226639568
0.00182266395697
0.00182266395687
0.00182266395682
0.00182266395684
0.00182266403412
0.00182266419372
0.0435666260613
0.122846617484
0.134259360199
0.13482462217
0.134843936481
0.134844452152
0.134844442844
0.134843597183
0.134815078423
0.134077417123
0.12122663559
0.0466997045939
0.00724494839528
0.0034219881926
0.00182266411658
0.0435661374136
0.122845833339
0.134259271289
0.134824608091
0.134843926257
0.134844442455
0.134844451673
0.134844364198
0.134841380987
0.134761443517
0.133156440118
0.111595610633
0.0263588390255
0.0534842671106
0.00182266411659
0.0435660889615
0.122845773558
0.134259264718
0.134824607418
0.134843925882
0.134844442076
0.134844453388
0.134844448406
0.134844278467
0.134839541325
0.134736587809
0.133064047784
0.116866690156
0.124429484084
0.00182266411683
0.0435661027817
0.122845794156
0.134259266872
0.134824607504
0.134843925872
0.134844442047
0.134844453437
0.134844453515
0.13484444659
0.134844259537
0.134840018091
0.134767869828
0.134036155203
0.134374159789
0.00182266411714
0.0435661387145
0.122845803661
0.134259267429
0.134824607536
0.134843925871
0.134844442041
0.134844453404
0.134844453658
0.134844453522
0.13484444786
0.134844321574
0.134842136107
0.134820145882
0.134830390263
0.0018226641174
0.0435661432641
0.122845805033
0.134259267501
0.13482460754
0.134843925871
0.13484444204
0.134844453404
0.134844453622
0.134844453656
0.134844453501
0.134844450634
0.13484439943
0.134843891702
0.134844147016
0.00182266411766
0.0435661479922
0.122845806857
0.134259267641
0.134824607529
0.134843925867
0.134844442035
0.1348444534
0.134844453617
0.134844453622
0.134844453621
0.134844453558
0.134844452669
0.134844443347
0.134844458367
0.00182266411421
0.0435661383915
0.122845800598
0.134259267013
0.134824607298
0.134843925653
0.134844441822
0.13484445319
0.134844453401
0.134844453404
0.134844453401
0.134844453391
0.134844453408
0.134844453707
0.134844463842
0.00182266411454
0.0435661572702
0.122845803543
0.134259256668
0.134824595979
0.134843914286
0.134844430453
0.134844441822
0.134844442035
0.134844442033
0.134844442032
0.134844442032
0.134844442026
0.134844442404
0.134844452472
0.00182266411864
0.0435661569216
0.122845471469
0.134258753548
0.134824080364
0.134843398138
0.134843914289
0.134843925657
0.13484392587
0.134843925871
0.134843925872
0.134843925873
0.134843925882
0.134843926254
0.134843936459
0.00182266411914
0.0435659561775
0.122832447577
0.134239868653
0.134804779877
0.134824080433
0.134824596031
0.1348246074
0.134824607606
0.134824607555
0.134824607598
0.13482460758
0.134824607581
0.134824608171
0.134824622274
0.00182266410435
0.0435569490138
0.12243028998
0.133685241655
0.134239871106
0.134258754841
0.13425925758
0.134259268717
0.134259268746
0.134259267874
0.134259268529
0.134259268482
0.134259268191
0.134259272616
0.134259361169
0.00182266341117
0.0431516741295
0.113664929496
0.122430327937
0.122832476218
0.122845483616
0.122845809311
0.122845819726
0.122845817647
0.122845804788
0.122845814489
0.122845813462
0.122845806438
0.12284584646
0.122846622813
0.0018226340591
0.0311739283205
0.0431516594438
0.0435569848025
0.0435659904227
0.0435661555371
0.0435661377962
0.0435661515377
0.0435661475397
0.0435661173436
0.0435661391867
0.0435661350254
0.0435661062407
0.0435661414665
0.04356659573
0.00163696308093
0.00182263405955
0.00182266341187
0.00182266410524
0.00182266412014
0.00182266411922
0.0018226641153
0.00182266411516
0.00182266411497
0.00182266411467
0.00182266411509
0.00182266411491
0.00182266411471
0.00182266411451
0.00182266419161
0.00182266402892
0.0435666049578
0.122846601923
0.134259358519
0.134824621799
0.134843936178
0.134844452525
0.13484446323
0.134844448716
0.134843895459
0.134827234983
0.134450964214
0.12877920226
0.089441082166
0.0737626585948
0.00182266395156
0.0435661030238
0.122845808838
0.134259268903
0.134824607681
0.134843925976
0.134844442168
0.134844453516
0.134844452226
0.134844397331
0.13484271637
0.134802618854
0.134102855284
0.126578988797
0.129448675036
0.00182266395171
0.0435660892047
0.122845772947
0.134259264316
0.134824607077
0.134843925614
0.134844441902
0.134844453169
0.13484445332
0.134844450227
0.134844355869
0.134842018438
0.134799497809
0.134349178599
0.134575239338
0.00182266395197
0.0435661029117
0.122845781744
0.134259265346
0.134824607122
0.134843925604
0.134844441877
0.13484445316
0.134844453646
0.134844453218
0.134844449659
0.134844359768
0.134842702438
0.134825575243
0.134834918052
0.00182266395223
0.0435661000955
0.122845768008
0.134259263825
0.134824607095
0.134843925591
0.134844441727
0.13484445314
0.134844453375
0.134844453668
0.134844453393
0.13484445077
0.134844403638
0.134843925935
0.134844208949
0.00182266395251
0.0435661019005
0.122845775785
0.13425926454
0.134824607104
0.134843925594
0.134844441768
0.134844453153
0.134844453376
0.134844453706
0.134844453596
0.134844453583
0.134844452273
0.134844442095
0.134844458405
0.00182266395288
0.0435661092172
0.122845794584
0.134259266596
0.134824607157
0.134843925593
0.13484444178
0.134844453477
0.134844453471
0.13484445339
0.134844453709
0.134844453644
0.134844453656
0.134844453714
0.134844463788
0.00182266400424
0.0435661381951
0.122845799904
0.134259266612
0.134824606946
0.134843925379
0.134844441553
0.134844452945
0.134844453262
0.134844453164
0.134844453174
0.134844453464
0.134844453206
0.134844453532
0.13484446368
0.00182266395355
0.0435661400702
0.122845789369
0.13425925509
0.134824595593
0.13484391401
0.134844430183
0.134844441554
0.13484444179
0.134844442111
0.134844441893
0.134844441776
0.134844441783
0.134844442127
0.134844452226
0.00182266395396
0.0435661285973
0.122845438677
0.134258750609
0.134824079929
0.134843397853
0.134843914014
0.13484392538
0.134843925595
0.134843925612
0.134843925607
0.134843925602
0.134843925613
0.134843925979
0.134843936188
0.00182266395446
0.0435659562432
0.122832434802
0.134239866352
0.134804779253
0.134824079931
0.13482459567
0.134824606966
0.134824607161
0.134824607196
0.134824607139
0.134824607213
0.134824607227
0.134824607723
0.134824621922
0.00182266394312
0.0435569491236
0.122430289273
0.133685236708
0.134239866485
0.13425875051
0.134259257071
0.134259266026
0.134259264933
0.134259267283
0.134259264418
0.134259267611
0.134259267773
0.134259269139
0.134259360761
0.0018226632499
0.0431516502486
0.113664902165
0.122430281282
0.122832430016
0.122845439716
0.122845808142
0.122845812625
0.122845792069
0.12284580271
0.122845777844
0.122845803609
0.122845805658
0.122845813633
0.12284662225
0.00182263389688
0.0311739124355
0.0431516326436
0.0435569468745
0.0435659517928
0.0435661123543
0.0435661373583
0.0435661273517
0.043566124516
0.0435661167369
0.0435661019998
0.0435660994832
0.0435661061798
0.0435661072329
0.043566595443
0.00163697084142
0.00182263389732
0.00182266325058
0.00182266394388
0.00182266395508
0.00182266395476
0.00182266400541
0.00182266400531
0.00182266400505
0.00182266400474
0.00182266395412
0.00182266395383
0.00182266395381
0.00182266400477
0.00182266408178
0.00182266402521
0.0435666080672
0.122846603497
0.134259358628
0.134824621814
0.134843936161
0.134844452511
0.134844463736
0.13484446372
0.134844455574
0.134844187455
0.134837407698
0.134717665639
0.133534489446
0.133306567377
0.00182266394787
0.0435661018309
0.122845810325
0.134259269034
0.134824607688
0.134843925976
0.134844442145
0.134844453523
0.134844453894
0.134844453075
0.134844427778
0.134843779664
0.134831886793
0.134706974948
0.134744000593
0.00182266394815
0.0435661413966
0.122845802331
0.134259266921
0.134824607189
0.134843925616
0.134844441849
0.134844453142
0.134844453525
0.134844453521
0.134844452053
0.134844416013
0.13484374371
0.134836753403
0.134840111498
0.00182266394838
0.0435661261306
0.122845784269
0.134259265483
0.134824607148
0.134843925602
0.134844441767
0.134844453139
0.134844453616
0.134844453536
0.134844453483
0.13484445197
0.134844426743
0.134844170039
0.134844324457
0.00182266394864
0.0435660986742
0.122845767107
0.134259263759
0.134824607102
0.13484392559
0.134844441741
0.134844453135
0.134844453358
0.134844453633
0.134844453554
0.134844453327
0.13484445257
0.134844446111
0.13484446045
0.00182266394897
0.0435660985411
0.12284577638
0.134259264591
0.134824607109
0.134843925592
0.134844441766
0.134844453152
0.134844453372
0.134844453702
0.134844453643
0.134844453621
0.134844453545
0.134844453763
0.134844463923
0.0018226639494
0.0435661071689
0.12284579701
0.134259266818
0.134824607183
0.134843925591
0.134844441778
0.134844453482
0.134844453403
0.134844453384
0.134844453713
0.134844453717
0.134844453704
0.134844454001
0.134844463777
0.0018226639759
0.0435661599785
0.122845810276
0.134259267314
0.134824606992
0.134843925378
0.134844441551
0.134844452942
0.134844453214
0.134844453161
0.134844453167
0.134844453473
0.134844453186
0.134844453504
0.13484446362
0.00182266394924
0.0435661423733
0.122845790033
0.134259255131
0.134824595596
0.134843914011
0.134844430181
0.134844441551
0.134844441787
0.134844442116
0.134844441837
0.134844441778
0.134844441771
0.134844442132
0.134844452223
0.00182266395015
0.0435661301941
0.122845438826
0.134258750547
0.134824079919
0.134843397852
0.134843914014
0.134843925377
0.134843925593
0.134843925611
0.134843925603
0.134843925599
0.13484392561
0.134843925976
0.134843936189
0.00182266395035
0.0435659753707
0.122832433251
0.134239866322
0.134804779239
0.134824079916
0.134824595696
0.134824606931
0.134824607163
0.13482460725
0.134824607134
0.134824607238
0.134824607265
0.13482460772
0.134824621974
0.00182266393903
0.0435569903657
0.122430316753
0.133685236419
0.134239866146
0.134258750303
0.134259257451
0.134259265113
0.134259264892
0.134259268237
0.134259264393
0.134259267854
0.13425926844
0.134259269111
0.13425936164
0.00182266324575
0.0431516516528
0.113664902821
0.122430279889
0.122832428574
0.122845438661
0.122845815866
0.122845814261
0.122845792983
0.122845816907
0.122845777453
0.122845806266
0.122845817435
0.122845812398
0.122846636735
0.00182263389273
0.0311739134851
0.0431516316943
0.0435569458573
0.0435659510758
0.0435661099556
0.0435661622453
0.043566127012
0.0435661245083
0.0435661519873
0.0435660999475
0.0435660976943
0.0435661465256
0.0435661061548
0.0435666470496
0.00163699792681
0.00182263389319
0.00182266324645
0.00182266393971
0.00182266395104
0.00182266395128
0.0018226639782
0.00182266397653
0.00182266397583
0.00182266397671
0.00182266395049
0.00182266395016
0.00182266395019
0.00182266397476
0.00182266405266
0.00182266418573
0.0435666218221
0.122846618945
0.134259360226
0.134824622138
0.134843936499
0.134844452201
0.134844463536
0.134844463742
0.134844463686
0.134844460483
0.134844371978
0.134842713106
0.134825726949
0.134826254826
0.00182266410868
0.0435661058972
0.12284582466
0.13425927063
0.134824608023
0.134843926313
0.134844442279
0.134844453714
0.134844453665
0.134844453717
0.134844453514
0.134844445521
0.134844300857
0.134842826599
0.134843242151
0.00182266410879
0.0435661211091
0.122845786399
0.134259265667
0.134824607493
0.13484392589
0.134844441819
0.134844453329
0.13484445336
0.134844453369
0.134844453425
0.134844452808
0.134844445009
0.134844366205
0.134844412802
0.00182266410886
0.0435661271965
0.122845797483
0.134259266993
0.134824607516
0.134843925887
0.134844441779
0.134844453303
0.134844453363
0.13484445336
0.134844453377
0.134844453421
0.134844453003
0.134844450451
0.134844462198
0.00182266410902
0.0435661033914
0.122845770062
0.134259264304
0.134824607446
0.134843925876
0.13484444212
0.134844453401
0.134844453607
0.134844453362
0.134844453361
0.134844453511
0.134844453312
0.134844453674
0.13484446379
0.00182266410933
0.0435661017894
0.122845790649
0.134259266378
0.13482460748
0.13484392587
0.134844442042
0.134844453396
0.134844453592
0.134844453281
0.134844453349
0.134844453364
0.134844453377
0.134844453728
0.134844463793
0.00182266410953
0.0435661108104
0.122845791878
0.134259266555
0.134824607526
0.134843925868
0.134844442027
0.134844453116
0.134844453293
0.134844453373
0.134844453256
0.134844453332
0.134844453576
0.134844453707
0.134844463886
0.00182266398481
0.0435661450878
0.122845798897
0.134259266682
0.134824607317
0.134843925653
0.134844441822
0.134844453174
0.134844453102
0.134844453246
0.134844453098
0.13484445341
0.134844453213
0.134844453557
0.134844463682
0.00182266410646
0.0435661618751
0.122845804109
0.134259256657
0.134824596003
0.134843914292
0.134844430453
0.134844441822
0.134844442016
0.134844441699
0.13484444181
0.134844441982
0.134844441709
0.134844442361
0.134844452372
0.00182266411056
0.0435661470595
0.122845462352
0.134258752375
0.134824080298
0.134843398149
0.13484391429
0.134843925656
0.134843925873
0.13484392586
0.13484392586
0.134843925863
0.134843925863
0.134843926241
0.134843936444
0.00182266411063
0.0435659753217
0.122832438574
0.134239867245
0.134804779756
0.134824080415
0.134824595956
0.134824607309
0.134824607631
0.134824607518
0.134824607495
0.134824607452
0.134824607442
0.134824608075
0.134824622153
0.00182266409735
0.0435569733268
0.122430293017
0.133685237391
0.134239869264
0.134258754206
0.134259254152
0.134259265445
0.13425926872
0.134259265325
0.134259266162
0.134259265175
0.134259264965
0.134259270715
0.134259358489
0.00182266340412
0.043151676834
0.113664927402
0.122430311661
0.122832454839
0.122845471949
0.122845777854
0.122845787999
0.122845816821
0.122845783609
0.122845784816
0.122845789731
0.122845782331
0.122845816083
0.122846610599
0.00182263405211
0.0311739313331
0.0431516379186
0.0435569496071
0.0435659574076
0.0435661101207
0.0435661452902
0.0435661377565
0.0435661349486
0.0435661398586
0.0435661045897
0.0435661021059
0.0435661121808
0.0435661099179
0.0435666327573
0.00163700303661
0.00182263405257
0.00182266340485
0.00182266409814
0.00182266411148
0.00182266411124
0.00182266398706
0.00182266398537
0.00182266398471
0.0018226639856
0.00182266410872
0.00182266410861
0.00182266410832
0.0018226639839
0.0018226640618
0.00182266402466
0.0435666245736
0.122846612724
0.134259359224
0.134824621865
0.134843936331
0.134844452174
0.134844463528
0.134844463725
0.134844463735
0.134844463788
0.134844462756
0.134844445413
0.134844266942
0.134844308393
0.00182266394793
0.0435661104734
0.122845807707
0.134259268437
0.13482460771
0.134843926302
0.134844442266
0.1348444537
0.134844453677
0.134844453701
0.134844453788
0.134844453523
0.134844452185
0.134844438719
0.13484445268
0.00182266394825
0.0435661178555
0.122845786043
0.134259265239
0.134824607166
0.134843925882
0.134844441845
0.13484445319
0.134844453355
0.134844453345
0.134844453433
0.134844453276
0.134844453184
0.134844452853
0.134844463321
0.00182266400511
0.04356615708
0.122845777218
0.13425926399
0.134824607109
0.134843925875
0.134844441836
0.134844453295
0.134844453356
0.13484445335
0.134844453355
0.134844453469
0.134844453336
0.134844453608
0.134844463775
0.00182266401126
0.0435661120143
0.122845772072
0.134259264108
0.134824607116
0.134843925646
0.1348444421
0.1348444534
0.134844453551
0.134844453358
0.134844453357
0.134844453493
0.134844453385
0.134844453731
0.134844463794
0.00182266394945
0.0435661050288
0.122845775167
0.134259264423
0.134824607095
0.134843925598
0.134844441704
0.134844453383
0.134844453603
0.134844453311
0.134844453352
0.134844453361
0.134844453357
0.134844453705
0.134844463772
0.00182266395013
0.0435661182198
0.122845792563
0.134259266212
0.134824607169
0.134843925601
0.134844441999
0.134844453107
0.134844453333
0.134844453376
0.134844453293
0.134844453319
0.134844453569
0.134844453699
0.134844463879
0.00182266399997
0.0435661470117
0.122845799154
0.13425926634
0.134824606968
0.134843925381
0.134844441569
0.134844453161
0.134844453131
0.134844453245
0.134844453104
0.13484445343
0.134844453255
0.134844453549
0.134844463666
0.00182266394953
0.043566153177
0.12284579436
0.134259255684
0.13482459563
0.134843914012
0.134844430185
0.134844441561
0.134844441758
0.134844441678
0.134844441844
0.134844441961
0.134844441728
0.134844442357
0.134844452371
0.00182266394896
0.0435661196268
0.122845435034
0.134258750308
0.134824080169
0.134843397863
0.134843914012
0.134843925382
0.134843925599
0.134843925809
0.134843925848
0.134843925524
0.134843925661
0.134843925996
0.134843936343
0.00182266395033
0.0435659989547
0.122832452603
0.134239867302
0.134804779662
0.134824079968
0.134824595594
0.13482460696
0.134824607193
0.134824607186
0.134824607434
0.134824607163
0.134824607193
0.134824607782
0.134824621869
0.00182266393783
0.0435569743057
0.122430292558
0.133685237677
0.134239869317
0.134258751566
0.134259253464
0.134259265256
0.134259266418
0.134259264753
0.134259265922
0.13425926484
0.134259264575
0.134259270528
0.134259358111
0.00182266324445
0.043151630089
0.113664880195
0.122430311303
0.12283245486
0.122845451934
0.122845775968
0.122845786352
0.122845800002
0.122845782773
0.122845786879
0.122845790822
0.122845782395
0.122845819494
0.122846611182
0.00182263389148
0.0311738941677
0.0431516527694
0.0435569527232
0.0435659606038
0.0435661123493
0.0435661470444
0.043566139664
0.0435661377726
0.0435661426392
0.043566112261
0.0435661111907
0.0435661110954
0.0435661196549
0.043566636097
0.00163702234139
0.00182263389239
0.00182266324528
0.00182266393855
0.00182266395149
0.00182266395142
0.00182266400161
0.00182266400081
0.0018226640004
0.00182266400057
0.00182266394888
0.0018226639491
0.00182266394849
0.00182266399749
0.00182266407497
0.00182266402296
0.0435666307396
0.122846613355
0.13425935925
0.134824621863
0.134843936251
0.134844452465
0.134844463833
0.134844464066
0.134844464063
0.134844464048
0.134844463985
0.134844463807
0.134844462603
0.134844472934
0.00182266394632
0.0435661157122
0.122845807183
0.134259268425
0.134824607696
0.134843926236
0.134844442414
0.134844453694
0.134844454043
0.13484445404
0.134844454016
0.134844453841
0.134844453951
0.134844454177
0.134844464213
0.00182266394672
0.0435661240751
0.122845792568
0.134259265709
0.134824607182
0.134843925873
0.134844442024
0.134844453127
0.134844453623
0.134844453659
0.134844453672
0.134844453514
0.134844453489
0.134844453938
0.134844464053
0.00182266399731
0.0435661277616
0.122845770141
0.134259263803
0.134824607119
0.134843925858
0.134844441985
0.134844453292
0.134844453609
0.134844453627
0.134844453646
0.134844453629
0.134844453536
0.134844453858
0.134844464013
0.00182266400893
0.04356614704
0.122845806566
0.134259267127
0.134824607204
0.134843925608
0.134844442035
0.13484445339
0.134844453565
0.134844453623
0.134844453625
0.134844453646
0.134844453601
0.134844454023
0.134844464091
0.00182266394649
0.043566107829
0.122845774271
0.134259264353
0.134824607113
0.134843925594
0.134844441691
0.134844453391
0.134844453624
0.134844453671
0.134844453629
0.134844453625
0.134844453652
0.134844454028
0.134844464081
0.0018226639476
0.0435661578138
0.122845810236
0.134259267482
0.134824607207
0.134843925602
0.134844442009
0.1348444534
0.134844453591
0.134844453622