/*--------------------------------*- C++ -*----------------------------------*\
| =========                 |                                                 |
| \\      /  F ield         | OpenFOAM: The Open Source CFD Toolbox           |
|  \\    /   O peration     | Version:  2406                                  |
|   \\  /    A nd           | Website:  www.openfoam.com                      |
|    \\/     M anipulation  |                                                 |
\*---------------------------------------------------------------------------*/
FoamFile
{
    version     2.0;
    format      ascii;
    arch        "LSB;label=32;scalar=64";
    class       volScalarField;
    location    "0.01";
    object      omega_0;
}
// * * * * * * * * * * * * * * * * * * * * * * * * * * * * * * * * * * * * * //

dimensions      [0 0 -1 0 0 0 0];

internalField   nonuniform List<scalar> 
29768
(
130.258781165
5.50599319181
1.95327676597
1.78726874165
1.77977721315
1.77953005588
1.77988036087
1.79264696229
2.14092264266
12.6466971659
634.115390157
7271.67054892
1.77992959187
1.78
1.78
130.258782274
5.5060545735
1.95328908753
1.78726976306
1.77977711478
1.77952309398
1.77955964608
1.78122349923
1.82869690018
2.92460517929
38.0334115083
743.179495554
802.841283205
1.77937221007
1.78
130.2587823
5.50605970677
1.95328972629
1.78726981533
1.77977710117
1.77952223922
1.7795181119
1.77962692441
1.78299152425
1.85665200366
3.09179989525
22.1427088709
111.047090952
2171.34582816
7007.70066809
130.258782299
5.50605907519
1.95328970956
1.7872698147
1.77977710088
1.77952218639
1.7795154865
1.77951996509
1.77967285874
1.78333822014
1.84144345535
2.41249013095
3.89443158116
17.4932887554
43.4659591451
130.258782299
5.50605737452
1.95328962907
1.78726981048
1.77977710069
1.77952218341
1.77951537781
1.77951537197
1.77952033114
1.77964769772
1.78183411184
1.8023459385
1.84559932165
2.17052076701
2.82119069008
130.258782299
5.50605490787
1.95328955211
1.78726980715
1.77977710053
1.77952218331
1.77951537348
1.77951522806
1.77951534992
1.77951866907
1.77957874869
1.78016444257
1.78131094469
1.79067713367
1.8097052903
130.258782298
5.50605246423
1.95328948606
1.78726980453
1.77977710052
1.77952218336
1.77951537342
1.77951522353
1.77951522422
1.77951529392
1.77951657989
1.77952938382
1.77955175584
1.77976218618
1.78022348857
130.258782327
5.50605177525
1.95328945557
1.78726980518
1.77977710325
1.77952218616
1.77951537623
1.77951522625
1.7795152235
1.77951522542
1.77951524891
1.779515476
1.77951581802
1.77951948078
1.77952784292
130.258782294
5.50605553326
1.95328966498
1.78726995511
1.77977725316
1.77952233614
1.77951552621
1.77951537623
1.77951537342
1.7795153734
1.77951537378
1.77951537832
1.77951538257
1.77951543543
1.77951558569
130.258782288
5.50605529484
1.95329490141
1.78727664705
1.77978405778
1.77952914593
1.77952233616
1.77952218619
1.77952218338
1.77952218335
1.77952218336
1.77952218343
1.77952218354
1.77952218574
1.7795222153
130.258782272
5.50607638774
1.95350172259
1.78752800738
1.78003881524
1.7797840581
1.77977725343
1.77977710369
1.77977710094
1.77977710101
1.77977710109
1.77977710121
1.77977710128
1.77977710031
1.77977707637
130.258774895
5.50721378001
1.95991698996
1.79494245623
1.78752800741
1.78727664567
1.7872699527
1.78726980797
1.78726980644
1.78726980752
1.78726980906
1.78726981132
1.78726981183
1.7872697647
1.78726873963
130.258731798
5.55891272802
2.11102644936
1.95991686948
1.95350163774
1.95329475447
1.9532895149
1.95328943802
1.95328945187
1.95328945114
1.95328947274
1.95328951009
1.95328952782
1.95328904829
1.95327670879
130.256632646
7.69330781931
5.55891135488
5.50721156655
5.50607606876
5.50605273177
5.50605317549
5.50605380579
5.50605413457
5.50605320897
5.50605362809
5.50605444853
5.50605502114
5.50605529005
5.50599456046
130.250326293
130.256639205
130.258729794
130.25878142
130.258782225
130.25878224
130.258780813
130.258775831
130.258782193
130.258781827
130.258776669
130.25878212
130.258782029
130.258776823
130.258781216
130.258720568
5.50603981784
1.95328346741
1.78726927517
1.77977709297
1.77952244645
1.77952800348
1.78003203268
1.79581891712
2.17772730035
12.6239269059
869.103549884
34437.617878
1.78
1.78
130.2587151
5.50610075677
1.95329571519
1.78727029209
1.77977711271
1.77952219743
1.77951678774
1.7795759961
1.7815291893
1.82848647751
2.68043611439
14.7487992262
638.526931973
259.371418012
1.78
130.258715098
5.50610156179
1.95329621486
1.78727033882
1.77977711335
1.77952217025
1.77951544136
1.77951888983
1.77964275035
1.78279420498
1.83707931638
2.43124775689
6.93123060695
451.114954451
746.971535242
130.258715098
5.50610130754
1.95329623549
1.78727034097
1.77977711337
1.77952216904
1.77951536089
1.77951535483
1.77952050462
1.77965919762
1.78224865479
1.81223825697
2.0272992967
4.63291965217
8.04143186983
130.258715099
5.50610057479
1.95329619654
1.78727033842
1.77977711322
1.77952216921
1.77951535809
1.77951521194
1.77951536602
1.77951977255
1.77960729751
1.78072237963
1.78980830149
1.87441369839
1.93934146073
130.2587151
5.50609984634
1.95329617086
1.78727033733
1.77977711317
1.77952216921
1.77951535829
1.77951520806
1.77951520863
1.77951531661
1.77951755221
1.77954768792
1.77981505511
1.78237985365
1.78381846366
130.258715102
5.50609912057
1.95329613173
1.78727033483
1.77977711308
1.77952216924
1.77951535834
1.77951520832
1.77951520531
1.77951520705
1.77951525247
1.77951588649
1.77952175129
1.77957972484
1.7796032412
130.258715133
5.50609849296
1.95329610534
1.78727033592
1.77977711581
1.77952217206
1.77951536115
1.77951521114
1.77951520832
1.77951520818
1.77951520855
1.77951521924
1.77951532214
1.77951635851
1.77951666515
130.258715104
5.50609800841
1.95329618951
1.78727048109
1.77977726558
1.77952232206
1.77951551116
1.77951536115
1.77951535834
1.77951535829
1.77951535829
1.77951535812
1.77951535966
1.77951537701
1.7795154091
130.25871509
5.5060978445
1.95330143779
1.78727717528
1.77978407121
1.77952913276
1.77952232203
1.77952217202
1.77952216921
1.77952216917
1.77952216918
1.77952216918
1.77952216927
1.77952217103
1.77952219901
130.258715073
5.50611848561
1.95350821195
1.787528555
1.78003885379
1.77978407042
1.7797772648
1.779777115
1.77977711226
1.77977711222
1.77977711242
1.77977711254
1.77977711258
1.77977711151
1.77977708756
130.258714224
5.50725663674
1.95992388308
1.79494349476
1.78752854544
1.78727716016
1.78727046638
1.78727032076
1.78727031939
1.78727031882
1.78727032319
1.7872703253
1.78727032496
1.78727027524
1.78726925333
130.258664814
5.55895905381
2.11103814251
1.95992377374
1.9535081044
1.95330126833
1.95329602198
1.95329593494
1.95329595634
1.9532959542
1.95329601632
1.9532960487
1.95329605306
1.9532955126
1.95328320515
130.256571646
7.69337312187
5.55895882883
5.50725684209
5.50611913733
5.50609805216
5.50609815899
5.50609867519
5.50609919315
5.50609948964
5.50610036013
5.50610097414
5.50610135892
5.50610014355
5.50603864453
130.250258347
130.256571712
130.258664862
130.258714314
130.258715129
130.258715151
130.258715176
130.258715152
130.258715185
130.25871518
130.258715157
130.25871518
130.258715179
130.25871516
130.25872065
130.258719911
5.50604223402
1.9532837108
1.78726929319
1.7797770895
1.77952220348
1.77951568673
1.77952890517
1.78002171446
1.79407781576
2.1041249184
9.24281210298
373.438178794
156.38911917
1.78
130.258714409
5.50610307765
1.95329594992
1.78727030953
1.77977711267
1.77952217106
1.77951539084
1.77951668926
1.77957107598
1.78115125152
1.81459535543
2.32214188522
10.8146709932
714.219652415
251.849138004
130.258714412
5.50610396969
1.9532964744
1.78727035879
1.77977711398
1.77952216895
1.77951535956
1.77951529201
1.77951847411
1.77961437173
1.78176876538
1.81633221149
2.25659612109
9.46592697381
8.44143642382
130.258714419
5.50610337247
1.95329645868
1.78727035774
1.77977711372
1.7795221688
1.77951535796
1.77951521088
1.77951533255
1.77951921751
1.7796115054
1.78124165819
1.80309705257
2.02067805574
1.99790252228
130.258714429
5.50610250883
1.95329641054
1.78727035453
1.77977711353
1.77952216872
1.77951535786
1.77951520797
1.77951520855
1.77951532426
1.77951818921
1.7795717808
1.78033732041
1.7877176742
1.78667611489
130.258714439
5.5061016455
1.95329638082
1.78727035318
1.77977711346
1.77952216872
1.77951535778
1.77951520786
1.77951520516
1.77951520762
1.77951527612
1.77951660439
1.77953618612
1.77972752848
1.77969046391
130.258714449
5.50610081987
1.95329633602
1.78727035027
1.77977711336
1.77952216875
1.77951535782
1.77951520783
1.77951520509
1.77951520513
1.77951520649
1.77951523227
1.7795156253
1.77951949681
1.77951855276
130.258714289
5.50610006999
1.95329630717
1.78727035125
1.77977711607
1.77952217157
1.77951536064
1.77951521063
1.77951520783
1.77951520784
1.77951520793
1.77951520835
1.77951521448
1.77951528002
1.77951529011
130.2587143
5.50609936458
1.95329637813
1.78727049567
1.77977726582
1.77952232157
1.77951551065
1.77951536064
1.77951535782
1.77951535779
1.7795153578
1.77951535789
1.77951535797
1.77951536054
1.77951539007
130.258714444
5.50609913957
1.95330163119
1.78727719048
1.77978407151
1.77952913231
1.77952232155
1.77952217155
1.77952216874
1.7795221687
1.7795221687
1.77952216872
1.77952216879
1.77952217036
1.77952219833
130.258714444
5.50611973823
1.95350842834
1.78752857366
1.78003885525
1.77978407104
1.77977726539
1.7797771156
1.77977711289
1.77977711294
1.77977711309
1.77977711322
1.77977711327
1.7797771122
1.77977708828
130.258713505
5.50725777604
1.9599240955
1.79494352919
1.78752856534
1.78727718019
1.78727048627
1.78727034096
1.78727034015
1.78727034162
1.78727034477
1.7872703471
1.787270347
1.78727029723
1.78726927588
130.258664063
5.55896023172
2.11103851573
1.95992399858
1.95350831973
1.95330149564
1.95329624913
1.95329616657
1.95329619617
1.95329622254
1.95329627005
1.95329630639
1.95329631535
1.95329577347
1.95328347423
130.256570927
7.69337459447
5.5589604544
5.50725799419
5.50612029611
5.50609939103
5.50609954893
5.5061001654
5.50610082429
5.50610147304
5.5061022956
5.50610303092
5.50610352503
5.50610232515
5.5060409276
130.250257588
130.25657096
130.258664119
130.258713561
130.258714519
130.258714514
130.258714357
130.258714349
130.258714343
130.258714336
130.258714348
130.258714341
130.258714338
130.258714338
130.258719849
130.25873123
5.5060332146
1.95328284885
1.78726923047
1.77977708797
1.77952219916
1.77951539477
1.77951551122
1.77952666851
1.77990307165
1.78969468927
1.97939253648
5.1373610464
104.811886589
155.523380778
130.25872573
5.50609426258
1.95329512421
1.78727024998
1.7797771114
1.77952217173
1.77951536051
1.77951523715
1.77951638603
1.77955575044
1.78061123762
1.8020716459
2.15019745606
9.09984776076
4.4858152405
130.25872573
5.50610037385
1.9532960677
1.78727033099
1.77977711386
1.77952217024
1.77951535911
1.77951520963
1.77951527048
1.77951751045
1.77958002092
1.78093967692
1.80332273047
2.05322812057
1.92844883572
130.258725747
5.50609862761
1.95329574
1.78727030211
1.77977711253
1.77952217017
1.77951535928
1.77951520883
1.77951520773
1.77951529299
1.77951776066
1.7795737312
1.78052633041
1.79024537312
1.78574288447
130.25872577
5.50609408704
1.95329558888
1.78727029468
1.77977711208
1.77952217017
1.77951535932
1.77951520929
1.77951520599
1.77951520768
1.77951527888
1.77951694556
1.77954578163
1.77983601404
1.77970096109
130.258725788
5.50609351229
1.95329556708
1.78727029373
1.77977711204
1.77952217017
1.77951535934
1.77951520932
1.77951520648
1.779515206
1.77951520692
1.77951524492
1.77951591556
1.77952262074
1.77951941478
130.258725807
5.50609291506
1.95329553808
1.78727029187
1.77977711219
1.77952217021
1.77951535938
1.77951520941
1.77951520655
1.77951520648
1.77951520646
1.77951520617
1.7795152184
1.77951534521
1.77951531149
130.258725561
5.50609412765
1.95329563758
1.78727030022
1.77977711523
1.77952217303
1.7795153622
1.77951521219
1.77951520941
1.77951520935
1.7795152093
1.77951520923
1.77951520887
1.77951521196
1.77951524101
130.258725584
5.5060917422
1.95329559082
1.78727043793
1.77977726464
1.77952232303
1.7795155122
1.7795153622
1.77951535939
1.77951535937
1.77951535938
1.77951535934
1.77951535943
1.77951536111
1.77951539098
130.258725877
5.5060917868
1.95330087011
1.78727713462
1.77978407018
1.77952913365
1.779522323
1.77952217299
1.77952217018
1.77952217016
1.77952217014
1.77952217015
1.77952217022
1.77952217179
1.77952219978
130.258725913
5.50611714728
1.953507945
1.78752853267
1.78003885151
1.77978406926
1.77977726395
1.77977711388
1.77977711118
1.77977711185
1.77977711128
1.77977711152
1.77977711172
1.77977711037
1.77977708695
130.258724858
5.50725520977
1.95992374778
1.79494343395
1.78752850012
1.78727711746
1.78727042588
1.78727027764
1.78727027725
1.78727028885
1.78727028014
1.78727028077
1.78727028485
1.78727023242
1.787269218
130.258675427
5.55895287804
2.11103718882
1.95992314132
1.95350749074
1.9533006782
1.95329550027
1.95329533469
1.95329536774
1.95329557219
1.95329541794
1.95329543428
1.95329554617
1.95329491684
1.95328276568
130.256582359
7.69336364777
5.55895478051
5.50725070045
5.50611283499
5.50609197661
5.50609421761
5.50609248129
5.50609298636
5.50609680157
5.50609404165
5.50609456744
5.50609820496
5.50609376487
5.50603706135
130.250269189
130.256582391
130.258675477
130.258724921
130.258725983
130.258725918
130.258725638
130.258725628
130.258725615
130.258725594
130.258725623
130.258725611
130.258725596
130.258725582
130.25873108
130.258719478
5.50603586763
1.95328309014
1.7872692478
1.77977708789
1.77952219828
1.7795153894
1.77951524323
1.7795154329
1.77952273232
1.77974260475
1.78472286066
1.86331867551
2.68273752498
3.2528616058
130.258713963
5.50609859626
1.95329550756
1.78727027662
1.77977711174
1.77952217037
1.77951535952
1.77951520986
1.77951522556
1.77951594781
1.77953812906
1.78006740732
1.78935509212
1.89570402175
1.85368314151
130.258713973
5.50610033405
1.95329607127
1.7872703312
1.77977711328
1.77952216881
1.77951535788
1.77951520791
1.77951520644
1.77951524523
1.77951648851
1.77954733247
1.78010861123
1.78607471312
1.7830749099
130.258713991
5.50609859794
1.95329593113
1.78727031728
1.77977711248
1.77952216873
1.77951535787
1.77951520784
1.77951520576
1.77951520669
1.77951525289
1.7795164384
1.77953830661
1.77976434949
1.77964120308
130.25871401
5.5060989578
1.95329614958
1.78727033751
1.77977711283
1.77952216879
1.7795153585
1.77951520786
1.7795152051
1.77951520566
1.77951520648
1.77951523943
1.77951585977
1.77952216806
1.77951859643
130.25871403
5.50609872566
1.95329602589
1.787270328
1.77977711271
1.77952216875
1.77951535787
1.77951520781
1.77951520499
1.77951520505
1.77951520569
1.77951520613
1.77951521927
1.77951535893
1.77951530679
130.258714057
5.50609780542
1.95329572708
1.78727030064
1.77977711201
1.77952216876
1.77951535784
1.77951520784
1.77951520503
1.779515205
1.77951520504
1.77951520503
1.77951520535
1.77951520917
1.77951523814
130.258717719
5.50609413211
1.95329564251
1.78727030043
1.77977711479
1.77952217157
1.77951536068
1.77951521066
1.77951520784
1.77951520781
1.77951520781
1.77951520786
1.77951520803
1.77951520963
1.77951523955
130.258714104
5.50609389383
1.9532958137
1.7872704541
1.77977726466
1.77952232159
1.77951551069
1.77951536068
1.77951535785
1.7795153578
1.77951535783
1.77951535807
1.77951535796
1.77951535981
1.77951538946
130.258714134
5.50609534413
1.95330138708
1.78727717003
1.77978407098
1.77952913235
1.77952232155
1.77952217156
1.77952216875
1.77952216869
1.77952216869
1.77952216869
1.77952216874
1.77952217035
1.77952219829
130.258714169
5.50611712921
1.95350814213
1.78752855831
1.78003885481
1.77978407084
1.77977726364
1.77977711453
1.77977711197
1.77977711151
1.77977711226
1.77977711129
1.77977711131
1.77977711121
1.77977708652
130.258713361
5.50725515631
1.95992375265
1.79494349541
1.78752855794
1.78727717021
1.78727042753
1.78727030832
1.78727032286
1.78727029158
1.7872703297
1.78727028722
1.78727028528
1.78727027356
1.7872692183
130.258663928
5.55895594374
2.11103768889
1.95992388166
1.95350821921
1.95330137157
1.95329551255
1.95329544147
1.95329576795
1.95329559872
1.95329599404
1.95329558441
1.95329555241
1.95329543266
1.95328276818
130.256570791
7.69336744836
5.55895817207
5.50725543558
5.50611765658
5.50609738561
5.50609421959
5.50609552802
5.50609584209
5.50609682395
5.50609868152
5.50609900001
5.50609820477
5.50609808189
5.50603704421
130.250257452
130.256570823
130.258663976
130.258713415
130.258714213
130.25871419
130.258717803
130.258717795
130.258717777
130.258717754
130.258714145
130.258714124
130.258714123
130.258717757
130.258723248
130.258719214
5.50603547473
1.953283065
1.78726924621
1.77977708756
1.7795221984
1.77951538965
1.77951523968
1.77951523897
1.77951534564
1.77951888276
1.7796083475
1.78118998398
1.79697072156
1.80004303075
130.258713699
5.50609874708
1.95329548383
1.78727027478
1.77977711156
1.7795221703
1.77951535972
1.77951520979
1.77951520717
1.77951521664
1.77951554946
1.77952409813
1.77968104748
1.7813311788
1.78084190086
130.258713719
5.50609373982
1.95329560401
1.78727029644
1.77977711173
1.77952216872
1.77951535786
1.77951520816
1.77951520624
1.77951520579
1.77951522318
1.77951569496
1.77952456621
1.7796168201
1.77957266789
130.258713736
5.50609566347
1.9532958909
1.7872703154
1.77977711208
1.77952216867
1.77951535782
1.77951520796
1.77951520629
1.77951520601
1.77951520578
1.77951522269
1.77951555364
1.779518947
1.77951707364
130.258713754
5.50609913839
1.95329616384
1.78727033833
1.77977711267
1.77952216874
1.77951535821
1.77951520782
1.77951520524
1.77951520624
1.77951520613
1.77951520565
1.77951521442
1.77951530781
1.77951528184
130.258713778
5.5060991503
1.95329601634
1.78727032727
1.77977711258
1.7795221687
1.77951535782
1.77951520776
1.77951520496
1.77951520517
1.77951520624
1.77951520626
1.7795152056
1.7795152088
1.7795152376
130.258713808
5.50609806521
1.95329568842
1.78727029763
1.7797771116
1.77952216872
1.77951535781
1.77951520779
1.77951520498
1.77951520494
1.77951520502
1.77951520524
1.77951520554
1.77951520709
1.7795152376
130.258715698
5.50609137868
1.95329547753
1.78727029104
1.77977711413
1.77952217152
1.77951536063
1.7795152106
1.77951520779
1.77951520774
1.77951520776
1.7795152078
1.7795152082
1.77951520985
1.77951523958
130.258713797
5.50609360287
1.95329580306
1.78727045346
1.77977726457
1.77952232153
1.77951551065
1.77951536064
1.7795153578
1.77951535776
1.77951535777
1.77951535788
1.7795153579
1.77951535961
1.77951538938
130.258713862
5.50609514241
1.9533013835
1.78727716977
1.77978407102
1.7795291323
1.77952232149
1.77952217154
1.77952216872
1.77952216863
1.77952216866
1.77952216864
1.77952216869
1.7795221703
1.77952219821
130.258713876
5.50611471317
1.95350816666
1.78752855855
1.78003885491
1.77978407098
1.77977726324
1.77977711494
1.77977711188
1.77977711072
1.77977711223
1.77977711087
1.77977711071
1.77977711115
1.77977708576
130.258713069
5.50724994208
1.95992331266
1.79494349917
1.78752856121
1.78727717287
1.78727042242
1.7872703204
1.78727032335
1.78727027881
1.78727032997
1.78727028389
1.78727027631
1.78727027386
1.78726920654
130.258663631
5.55895576351
2.1110376765
1.95992390379
1.95350824192
1.95330138673
1.95329538958
1.95329541536
1.9532957533
1.9532953729
1.95329600013
1.95329554204
1.95329536506
1.95329545218
1.95328253779
130.256570495
7.69336718804
5.55895829271
5.50725556245
5.50611774529
5.50609766446
5.50609107295
5.50609557057
5.50609584118
5.50609236813
5.50609893952
5.50609922474
5.50609310657
5.5060982177
5.5060305215
130.250257153
130.256570528
130.258663681
130.258713117
130.258713925
130.258713942
130.258715862
130.258715743
130.258715693
130.258715755
130.258713886
130.258713863
130.258713864
130.258715617
130.258721171
130.258730661
5.50603374955
1.95328282551
1.78726922877
1.77977708696
1.77952219863
1.77951538967
1.77951523978
1.77951523688
1.77951523764
1.77951528034
1.77951644466
1.77953833486
1.77976251873
1.7797557142
130.258725167
5.50609824371
1.95329526205
1.78727025774
1.77977711106
1.77952217082
1.77951535991
1.77951520981
1.77951520759
1.7795152068
1.77951521015
1.77951531204
1.7795172209
1.77953668121
1.77953136017
130.258725174
5.50609626124
1.95329586301
1.78727031775
1.77977711267
1.77952216998
1.77951535839
1.77951520821
1.77951520516
1.77951520499
1.77951520523
1.77951521039
1.77951531297
1.77951635876
1.77951590782
130.258725179
5.50609553961
1.95329568702
1.78727030029
1.7797771123
1.77952216983
1.77951535855
1.77951520829
1.77951520508
1.77951520492
1.77951520496
1.77951520542
1.77951520876
1.7795152478
1.77951525646
130.25872519
5.50609850014
1.95329612261
1.78727033597
1.77977711321
1.7795221701
1.77951535812
1.77951520915
1.77951520627
1.77951520506
1.77951520501
1.77951520495
1.77951520511
1.77951520754
1.77951523701
130.258725213
5.50609875078
1.95329579572
1.78727030863
1.77977711278
1.77952217013
1.77951535926
1.77951520928
1.7795152065
1.77951520623
1.77951520506
1.77951520498
1.77951520502
1.7795152067
1.77951523658
130.258725227
5.50609756275
1.95329577582
1.78727030628
1.77977711211
1.77952217015
1.77951535935
1.77951520867
1.7795152065
1.77951520642
1.7795152064
1.77951520549
1.77951520554
1.77951520714
1.77951523667
130.258716334
5.50609326747
1.95329566436
1.78727030459
1.77977711493
1.77952217299
1.77951536214
1.77951521207
1.77951520862
1.77951520841
1.77951520885
1.77951520846
1.77951520832
1.77951520988
1.77951523959
130.258725008
5.50609115756
1.95329557602
1.78727043773
1.77977726427
1.77952232292
1.77951551216
1.77951536214
1.77951535929
1.77951535925
1.77951535849
1.77951535821
1.77951535924
1.77951536006
1.77951538996
130.2587253
5.50609302912
1.95330100852
1.7872771458
1.77978407087
1.77952913347
1.77952232294
1.77952217296
1.77952217009
1.77952217008
1.77952217007
1.77952217005
1.77952217018
1.77952217162
1.77952219898
130.258725305
5.50611467734
1.95350808742
1.78752855067
1.78003885289
1.77978406948
1.7797772649
1.77977711499
1.77977711071
1.77977711207
1.77977711178
1.77977711224
1.77977711228
1.77977711063
1.77977708726
130.258724359
5.507252132
1.95992369905
1.79494349086
1.78752851941
1.78727712554
1.78727047148
1.78727032115
1.78727027751
1.78727032259
1.78727031124
1.78727032411
1.78727032681
1.78727025703
1.78726925316
130.258674925
5.55895247771
2.11103722718
1.95992340171
1.95350783012
1.95330085684
1.95329600011
1.95329583884
1.95329538076
1.95329590883
1.95329588966
1.95329581148
1.95329592897
1.95329539936
1.95328295974
130.256581861
7.69336290299
5.55895755262
5.50725514935
5.5061170054
5.5060976534
5.50609325045
5.50609417377
5.50609456755
5.50609395011
5.50609841344
5.50609872664
5.5060974034
5.50609769415
5.50603237521
130.250268689
130.256581893
130.258674977
130.258724415
130.258725366
130.258725349
130.258716494
130.258716373
130.258716326
130.25871639
130.258725169
130.258725161
130.258725141
130.258716269
130.258721823
130.258719175
5.50603338463
1.95328291831
1.78726923844
1.7797770871
1.77952219873
1.77951538982
1.77951523983
1.77951523707
1.77951523697
1.77951523715
1.77951524836
1.77951547652
1.77951783716
1.77951745271
130.258713704
5.50609765325
1.95329552561
1.78727028281
1.77977711163
1.77952217084
1.77951536008
1.77951521
1.77951520737
1.77951520699
1.77951520694
1.77951520786
1.77951522558
1.77951540893
1.77951538721
130.258713726
5.50609666294
1.95329586684
1.78727031905
1.77977711233
1.77952216998
1.77951535842
1.77951520834
1.77951520514
1.77951520525
1.77951520537
1.77951520551
1.77951520642
1.7795152169
1.77951524256
130.258717781
5.50609171332
1.953296003
1.78727033538
1.77977711287
1.77952216984
1.77951535856
1.77951520837
1.77951520502
1.779515205
1.77951520522
1.77951520551
1.77951520552
1.77951520742
1.77951523698
130.258718219
5.50609740656
1.95329608592
1.78727033388
1.77977711274
1.77952217004
1.77951535826
1.77951520914
1.77951520583
1.77951520494
1.77951520501
1.77951520521
1.77951520532
1.77951520701
1.77951523698
130.258713812
5.50609832641
1.95329603581
1.7872703296
1.7797771129
1.77952216889
1.77951535924
1.77951520926
1.77951520518
1.77951520566
1.77951520496
1.77951520496
1.77951520526
1.77951520697
1.77951523685
130.25871386
5.50609661718
1.95329576298
1.78727030586
1.77977711191
1.77952216887
1.77951535927
1.77951520868
1.77951520647
1.77951520638
1.77951520586
1.77951520563
1.77951520564
1.77951520719
1.77951523675
130.258717415
5.50609302447
1.95329565858
1.78727030428
1.77977711454
1.77952217162
1.77951536083
1.77951521199
1.77951520863
1.77951520843
1.77951520885
1.77951520848
1.77951520838
1.77951521001
1.7795152398
130.258713818
5.50609220657
1.95329573034
1.78727044919
1.77977726433
1.77952232161
1.77951551075
1.77951536085
1.77951535921
1.77951535923
1.7795153585
1.77951535823
1.77951535922
1.77951536005
1.77951538997
130.258713777
5.50609644542
1.95330144337
1.78727717385
1.77978407093
1.77952913235
1.7795223216
1.77952217161
1.77952216885
1.77952216885
1.77952217005
1.77952217003
1.77952216892
1.77952217033
1.77952219843
130.258713874
5.50611168124
1.95350786111
1.78752854975
1.78003885272
1.77978407049
1.77977726471
1.77977711466
1.7797771116
1.77977711193
1.77977711167
1.77977711227
1.77977711208
1.77977711044
1.77977708727
130.258712983
5.50725200054
1.95992370465
1.79494348453
1.78752851929
1.78727715919
1.78727047569
1.78727031861
1.78727030314
1.7872703253
1.78727030998
1.78727032434
1.78727032788
1.78727025531
1.78726925375
130.258663539
5.55895848872
2.11103810188
1.95992340147
1.95350782455
1.95330117586
1.95329602838
1.95329585891
1.95329564207
1.95329591601
1.95329585045
1.9532957879
1.95329592287
1.95329534321
1.95328294437
130.256570406
7.69337195492
5.55895558035
5.50725469654
5.50611654337
5.50609738043
5.50609302874
5.50609391397
5.50609420921
5.50609359077
5.50609738593
5.50609755605
5.50609753131
5.50609646203
5.50603192
130.250257067
130.256570471
130.258663598
130.258713034
130.258713957
130.258713952
130.258717531
130.258717474
130.258717445
130.258717457
130.258713771
130.258713787
130.258713743
130.258717238
130.258722763
130.258719054
5.50603260546
1.95328290814
1.78726923793
1.77977708698
1.77952219966
1.77951539062
1.77951524064
1.77951523766
1.77951523774
1.77951523781
1.77951523713
1.77951523852
1.77951525962
1.77951528425
130.258713589
5.50609699127
1.95329553383
1.78727028273
1.77977711158
1.77952217177
1.77951536093
1.77951521067
1.77951520737
1.77951520763
1.77951520781
1.77951520793
1.7795152072
1.77951520988
1.77951523939
130.258713617
5.50609592862
1.95329576312
1.78727031253
1.779777112
1.77952217022
1.77951535939
1.77951520919
1.77951520654
1.77951520624
1.77951520601
1.77951520627
1.77951520637
1.77951520729
1.77951523731
130.258717225
5.50609541258
1.9532961154
1.78727033775
1.7797771127
1.77952217017
1.77951535934
1.77951520931
1.77951520649
1.77951520645
1.77951520616
1.77951520603
1.77951520628
1.77951520799
1.77951523784
130.258718053
5.50609303195
1.95329553744
1.78727029349
1.7797771115
1.77952217009
1.77951535923
1.77951520931
1.77951520591
1.77951520639
1.77951520646
1.77951520619
1.77951520606
1.77951520783
1.77951523768
130.258713601
5.50609797264
1.95329604994
1.78727033043
1.7797771126
1.77952216886
1.77951535929
1.77951520929
1.77951520516
1.77951520573
1.77951520641
1.77951520648
1.77951520632
1.7795152078
1.7795152378
130.25871368
5.50609163309
1.95329548198
1.78727028886
1.77977711132
1.7795221688
1.77951535929
1.77951520939
1.77951520652
1.77951520646
1.77951520588
1.77951520636
1.77951520633
1.77951520798
1.77951523812
130.258724292
5.50609039607
1.95329542868
1.78727028858
1.779777114
1.77952217158
1.7795153608
1.77951521208
1.77951520939
1.77951520932
1.7795152093
1.77951520927
1.77951520926
1.77951521077
1.77951524069
130.258713545
5.50609211891
1.95329572579
1.78727044889
1.77977726426
1.77952232155
1.77951551072
1.77951536081
1.77951535928
1.77951535932
1.77951535934
1.77951535922
1.77951535936
1.77951536089
1.77951539086
130.258713623
5.50609644518
1.95330144876
1.78727717412
1.77978407074
1.77952913231
1.77952232152
1.77952217157
1.77952216879
1.77952216878
1.77952217007
1.77952217006
1.77952216884
1.77952217032
1.77952219835
130.25871366
5.50611676152
1.95350794698
1.78752854797
1.78003885154
1.7797840705
1.77977726297
1.77977711378
1.77977711141
1.77977711022
1.77977711038
1.77977711034
1.7797771104
1.77977710956
1.77977708541
130.258712821
5.50724946651
1.95992327619
1.79494342468
1.78752849813
1.78727715888
1.78727042018
1.78727029132
1.78727030222
1.78727026983
1.78727027003
1.78727027
1.78727027353
1.78727022514
1.78726920096
130.258663375
5.55895854923
2.1110382991
1.95992311081
1.95350745936
1.95330116411
1.95329535448
1.95329525612
1.95329564114
1.95329524496
1.95329528781
1.9532952824
1.95329538377
1.95329479386
1.95328246078
130.256570236
7.69337197727
5.55895784409
5.50724988589
5.50611201136
5.50609705057
5.50609029654
5.50609203186
5.50609169525
5.50609075614
5.50609313059
5.50609250212
5.5060967618
5.50609152043
5.5060293773
130.250256896
130.256570281
130.258663426
130.258712874
130.258713736
130.258713737
130.258724404
130.258724346
130.258724327
130.258724345
130.258713632
130.258713666
130.258713609
130.258720338
130.258725859
130.258719134
5.50602939093
1.95328268893
1.78726922124
1.77977708636
1.77952219902
1.77951538937
1.77951523938
1.77951523661
1.77951523653
1.77951523652
1.77951523651
1.7795152366
1.7795152384
1.77951526856
130.258724903
5.50609551239
1.95329550568
1.78727026718
1.77977711114
1.77952217114
1.77951535955
1.77951520955
1.7795152075
1.7795152067
1.77951520665
1.77951520665
1.7795152067
1.77951520837
1.7795152383
130.258724921
5.50609549448
1.95329575121
1.78727030963
1.779777112
1.77952216881
1.77951535786
1.77951520788
1.77951520542
1.77951520504
1.779515205
1.77951520499
1.77951520506
1.7795152067
1.7795152366
130.25871661
5.5060955407
1.95329558872
1.78727029224
1.77977711157
1.77952216871
1.7795153578
1.77951520784
1.77951520576
1.779515205
1.77951520494
1.77951520493
1.77951520499
1.77951520665
1.77951523655
130.258714485
5.50609319958
1.95329567757
1.7872703062
1.77977711238
1.77952216881
1.77951535781
1.7795152078
1.7795152052
1.77951520496
1.77951520494
1.77951520494
1.77951520499
1.77951520665
1.77951523655