/*--------------------------------*- C++ -*----------------------------------*\
| =========                 |                                                 |
| \\      /  F ield         | OpenFOAM: The Open Source CFD Toolbox           |
|  \\    /   O peration     | Version:  2406                                  |
|   \\  /    A nd           | Website:  www.openfoam.com                      |
|    \\/     M anipulation  |                                                 |
\*---------------------------------------------------------------------------*/
FoamFile
{
    version     2.0;
    format      ascii;
    arch        "LSB;label=32;scalar=64";
    class       volScalarField;
    location    "0.01";
    object      p;
}
// * * * * * * * * * * * * * * * * * * * * * * * * * * * * * * * * * * * * * //

dimensions      [0 2 -2 0 0 0 0];

internalField   nonuniform List<scalar> 
29768
(
0.0707286449347
0.0707070133351
0.0706929168652
0.0704068993959
0.0703108108849
0.0695520734227
0.0696708040724
0.0676458125938
0.068922942744
0.0616154268665
0.0664089803783
0.04943316324
0.0792729870141
0
0
0.0707680169252
0.0707523299085
0.0707274078788
0.0705220385819
0.0703240184955
0.0699221693277
0.0695006819607
0.0690672691268
0.0676673875164
0.0684660485104
0.0619824523547
0.069885827691
0.050164607333
0.0791410718928
0
0.0708138783769
0.0707924582233
0.0707853929236
0.0705071828819
0.0704584030583
0.0697270164216
0.0699297840035
0.0681114337067
0.0694031853012
0.064334358792
0.0692182904278
0.0566964615639
0.0693760667838
0.0508209659513
0.0509905948201
0.0709058467411
0.0708964628567
0.0708713266194
0.0707426787831
0.0705400997364
0.0703480536551
0.0698915992872
0.0698950428944
0.06865571396
0.0698737693195
0.0660608269465
0.0713836016812
0.0613739953999
0.0733669889033
0.0660990831759
0.0709670956003
0.0709502169628
0.0709440237379
0.0707294232632
0.070680940006
0.070161542174
0.070246258024
0.0691500699876
0.0696983308965
0.0673575705531
0.0691641209074
0.0644714519981
0.0684667368507
0.0613650812149
0.0621971978428
0.0710868776126
0.0710816437276
0.0710631749616
0.0709813444503
0.0708273868309
0.0707140211297
0.0703989950634
0.0704048950142
0.069717805792
0.0702348764072
0.0687143725888
0.0705127481134
0.0677171213513
0.0712156531193
0.0686084282328
0.0711533332055
0.0711419581029
0.0711360928068
0.0709905858731
0.0709403403923
0.0706170175149
0.0706168658518
0.0700315986002
0.0701910925811
0.0691863299796
0.0696926368417
0.0681363939478
0.0690645892478
0.0673095841623
0.0679832648593
0.0712753441844
0.0712724697538
0.0712615308329
0.0712070763578
0.0711053841522
0.0710245329151
0.0708381163041
0.0708055020685
0.0704674503762
0.0706254945532
0.0700309049686
0.0705804762203
0.0696946396593
0.0706718650117
0.0697992072535
0.0713374312776
0.0713305571175
0.07132617415
0.0712340538644
0.0711897123884
0.0709986346934
0.070967334803
0.0706631865051
0.0706824049357
0.0702461137664
0.0703658261696
0.0698194806436
0.0700546771665
0.0695542456498
0.0698333819607
0.0714415573739
0.0714398288588
0.0714346725934
0.0713963089089
0.0713332190175
0.0712704235876
0.0711662111708
0.0711166702247
0.070955501045
0.0709750851415
0.0707395681538
0.0708900951293
0.0705924116056
0.0708813074168
0.070601694411
0.0714912260651
0.071487312627
0.0714852486135
0.0714285983745
0.0713934311631
0.0712817270759
0.0712461458603
0.0710862710201
0.071066240457
0.0708686331572
0.0708834217504
0.0706762543945
0.0707382469951
0.0705793426158
0.0706910069433
0.0715642318541
0.0715626150798
0.0715613138289
0.0715311739379
0.0714921549192
0.0714394784649
0.0713816441373
0.0713275433634
0.071251620976
0.0712216654989
0.0711306567488
0.0711497724415
0.0710559238687
0.0711313330958
0.0710602920445
0.071595446379
0.071592886417
0.0715912114859
0.0715548693095
0.0715263040385
0.0714596765801
0.0714250935371
0.071340104938
0.0713083529976
0.0712192224489
0.071201021034
0.0711260389184
0.0711316570581
0.0710906507593
0.0711281266951
0.071631137153
0.0716255593326
0.071610374798
0.071576298478
0.0715465235574
0.0714923980972
0.0714535468947
0.0713904391015
0.0713487535285
0.0712918223312
0.0712559915873
0.0712207933185
0.0712013090021
0.0711982955472
0.0712052485892
0.0716408997087
0.071629233696
0.0716122331766
0.0715763666365
0.0715473932388
0.0714906222612
0.0714535837199
0.0713858377061
0.0713477039124
0.0712832768784
0.071253335776
0.0712077582719
0.0711964874935
0.0711820285775
0.0711985975135
0.0694075024534
0.0693735220305
0.0694147499989
0.0690656959591
0.069175969966
0.0682481263859
0.0687768431846
0.0664743244005
0.0684468213104
0.0613525766875
0.0679061545124
0.0488603309562
0.0597699563491
0
0
0.069437811964
0.0694095222729
0.0694424239224
0.0691859302993
0.0691953802416
0.0686858818295
0.0686712178452
0.0682505616272
0.0674368995766
0.0695980850375
0.0628991663966
0.0774903585121
0.0498517520091
0.0604758943923
0
0.0694804764051
0.0694448498819
0.0694887497493
0.0691254775473
0.0692821826974
0.0683142716659
0.0689752007278
0.0666821685112
0.0688481705082
0.0631225138005
0.0699467926008
0.0555136115231
0.0737581293044
0.049744107364
0.0500147471011
0.0695877735772
0.0695708282572
0.069589995649
0.0694511518059
0.069389176666
0.0691998096311
0.0689711285407
0.0691586547551
0.0681243790249
0.0701829085125
0.0662137678325
0.0740677408752
0.0628643899631
0.0784614323637
0.0690811435464
0.0696221391258
0.0695929327726
0.0696237634094
0.0693352792949
0.0694376982182
0.068722172269
0.0691383832553
0.0676431626611
0.0688169715837
0.0657715296659
0.0686294909613
0.062851023656
0.0682774770632
0.0601514481904
0.0617550481309
0.0697715799594
0.069761824359
0.0697736598571
0.0696960077772
0.0696333804943
0.0695467053167
0.0693680772812
0.06951962929
0.0689419611373
0.0699346197017
0.0683089344079
0.0711693573095
0.0677932463573
0.0726903547522
0.0691404985054
0.0698007934858
0.0697802822613
0.0697969103666
0.0695996201743
0.0696409581964
0.0691902253101
0.0693819589658
0.0685508195152
0.0690469113526
0.0676236156057
0.0686463996199
0.066474017002
0.068043074673
0.0655988748717
0.0667645457334
0.0699562281767
0.0699502529782
0.0699578663458
0.0699081477528
0.0698633477107
0.0698019531551
0.0697002146614
0.0697449121092
0.0694845678335
0.0698534414315
0.06925217657
0.0702078843345
0.0691409787317
0.0706159368777
0.0693984189017
0.0699825422632
0.0699694825004
0.0699769228218
0.0698525983952
0.0698576933151
0.0695944161802
0.0696620766902
0.0692278856596
0.0694086221207
0.0687652828401
0.0691142192591
0.0682816640817
0.068790239329
0.0679713687585
0.0685142075915
0.0701159345852
0.070111656789
0.0701164854936
0.070079314105
0.0700496640962
0.0699949509879
0.0699419943572
0.0699235430019
0.0698162172493
0.0699132911714
0.0697041494348
0.0699897537631
0.069658035911
0.070098888771
0.0697213812702
0.0701388800509
0.0701309241947
0.0701345940366
0.0700593842372
0.0700494231159
0.0699003970354
0.0699132606594
0.0696908910768
0.0697450812146
0.0694542841621
0.0695680063581
0.069238722754
0.0694160096481
0.0691221969112
0.0693550558401
0.0702324988144
0.0702283994889
0.0702320033123
0.0701992563212
0.0701789785928
0.070125425989
0.0700974969741
0.0700488453796
0.0700077683046
0.069995437294
0.0699331384216
0.0699826869561
0.0698995139583
0.070004611506
0.0699228434022
0.0702490724678
0.0702439479941
0.0702465635087
0.07020074568
0.0701857752685
0.0701022077394
0.070091669718
0.0699807920098
0.0699831948574
0.0698580773435
0.0698823444068
0.0697619356505
0.0698151740275
0.0697229196841
0.0698105392237
0.0702947996618
0.0702864510612
0.0702758409895
0.0702364251754
0.0702189503953
0.0701570812904
0.0701381626055
0.0700653790984
0.0700494794914
0.0699812683613
0.0699737306474
0.069925013063
0.0699324913042
0.0699114737528
0.0699417861688
0.0703006886255
0.0702869651638
0.070275147114
0.0702329049965
0.0702158103237
0.0701486134403
0.0701308439743
0.0700486792645
0.0700361735018
0.0699531965278
0.0699529503107
0.0698845022786
0.0699042045478
0.0698623095853
0.0699091923132
0.0670807554767
0.0670706774073
0.0670521929695
0.0668742637311
0.0667116082012
0.0663593435819
0.0660424625341
0.065590658911
0.064658804687
0.0648920326629
0.0605728438149
0.0653416262737
0.0477233665256
0.0570510874265
0
0.067118416774
0.067111607038
0.0670935278136
0.0669512775301
0.0667835646614
0.0665265081969
0.0662222915416
0.0659055719966
0.0654119172831
0.064933916002
0.0651992788061
0.0615361356591
0.0703960453066
0.0465768860506
0.0471243310101
0.0671552568064
0.0671448355756
0.0671327270237
0.0669579970634
0.0668424642951
0.0664819745599
0.0663133676615
0.0657728882401
0.0654311057103
0.0649761060453
0.0638627793298
0.0651170067515
0.0611466412471
0.0682996059035
0.0650203396399
0.0672379103539
0.0672335855407
0.0672194296504
0.0671156158649
0.0669734334353
0.0667945444972
0.0665462662422
0.0663418160034
0.0659536836654
0.0656866418694
0.0654029006557
0.064267448083
0.0654960087949
0.0604753176264
0.0601649727486
0.0672871681508
0.0672782050312
0.0672708670499
0.0671258654532
0.0670477359515
0.066748396941
0.0666676368639
0.0662044185877
0.0661308545284
0.0655682595765
0.0654529000983
0.0651957947038
0.0648364317143
0.0658411564204
0.0652982565015
0.0673938419789
0.0673913095193
0.0673818011449
0.0673098725079
0.0672033681565
0.0670820866979
0.0669018767016
0.0667759850447
0.0664944364116
0.0663959207014
0.0660399772001
0.065865560509
0.0656252537576
0.0651189223096
0.0648093522312
0.0674474797208
0.0674409270148
0.0674363488338
0.0673301833253
0.0672749845331
0.0670604450344
0.0670109630416
0.0666879921132
0.0666684610073
0.066261853578
0.0662931662815
0.0659234003929
0.0659872282313
0.0658783632859
0.0659522341352
0.0675563205642
0.0675548602517
0.0675496144926
0.0675003467316
0.0674279089169
0.0673438527894
0.0672275408897
0.0671417826182
0.066969885074
0.0669191253593
0.0666944119067
0.0666969416952
0.0664641729201
0.0665224907904
0.0663271924686
0.0676066053613
0.0676023726344
0.0675998167141
0.0675282295766
0.0674881500064
0.0673473360761
0.0673096335828
0.0671075967032
0.0670893449071
0.0668449334644
0.0668649029154
0.0666289275941
0.0666948276529
0.0665460573632
0.0666624707207
0.0676998936581
0.0676989648338
0.0676969615715
0.0676624184728
0.0676158023908
0.0675551816417
0.0674851511683
0.0674207800731
0.0673263552002
0.067283925918
0.0671699088729
0.0671728849539
0.0670586972443
0.0671203396209
0.0670386132435
0.0677402863626
0.0677377822724
0.0677371874039
0.0676912462021
0.0676619537129
0.0675737061484
0.067543265922
0.0674235557081
0.067402899268
0.0672673222107
0.0672690646777
0.0671439839446
0.0671782730271
0.067095749411
0.0671708957534
0.0678059572153
0.0678048885055
0.0678052133063
0.0677788177875
0.0677489828578
0.0677016347957
0.0676603321073
0.067607247383
0.0675583835404
0.0675160577605
0.0674661054361
0.0674502569572
0.0674103064927
0.0674300482772
0.0674147878468
0.0678314566026
0.0678297824307
0.0678294323984
0.0677993031334
0.0677762938993
0.0677213273173
0.0676941945755
0.0676253143762
0.0676015728994
0.0675315488368
0.0675199230191
0.0674637652303
0.067472541468
0.0674433451126
0.0674789700108
0.0678635270657
0.0678588938761
0.0678464374844
0.0678174168303
0.067793562279
0.0677473411065
0.0677174215085
0.0676628863581
0.067632883999
0.0675821029645
0.0675598607776
0.0675252199256
0.067519384921
0.0675097551966
0.0675277032485
0.0678714763548
0.0678615775964
0.0678474480262
0.0678170403278
0.0677935433763
0.0677453776201
0.067716319766
0.067658683419
0.0676304257926
0.0675750892022
0.0675557629319
0.0675153632673
0.0675136520676
0.0674979541294
0.067520907995
0.065799501721
0.0657783363998
0.0658124800125
0.0655872379904
0.0656561131659
0.0651037794344
0.0653998398103
0.0642448751966
0.0651616273312
0.0625151659287
0.0653781522427
0.058061192163
0.0660497370777
0.0461602494431
0.046811018526
0.0658214604747
0.0658022365439
0.0658358994229
0.0656420879114
0.0656913908962
0.0652613011931
0.0654493793135
0.0647604806156
0.0651719701463
0.0644020757216
0.0649957812215
0.0654288482064
0.0652985818968
0.0703169564786
0.0684241862929
0.0658565995364
0.0658345393345
0.0658663729612
0.0656348131179
0.0657133605548
0.0651448938966
0.0654590419018
0.0642891670026
0.0651624142572
0.0627548680511
0.064919379355
0.0599855309191
0.0644468809431
0.0558462128943
0.0579095123978
0.0659404070008
0.0659281274508
0.0659538305027
0.0658326088822
0.0658422657417
0.065608072753
0.0656539311431
0.065401954624
0.0654334605647
0.065470704269
0.0652752325877
0.0663325778386
0.0654632106973
0.0683486744314
0.0667318412123
0.065966989008
0.0659485654014
0.065971094939
0.0657815937708
0.065831472555
0.0653900144178
0.0655941287538
0.0647631546162
0.0652779530102
0.063804987049
0.0648799109266
0.0624893200771
0.0642158474137
0.0612378066816
0.0626637379911
0.0660857940727
0.0660784659183
0.0660962996469
0.0660227592524
0.0660151699891
0.0658849327284
0.0658808569861
0.0657761167335
0.0657307150882
0.0658263275947
0.0656266685184
0.0661881461888
0.0656845541607
0.0667678055498
0.0660065991382
0.0661072960248
0.0660941001179
0.0661072850312
0.0659725698259
0.0659917650841
0.0656969080774
0.0657969611632
0.065292573224
0.0655360718296
0.0647545081768
0.0652158702076
0.0641484320157
0.0648287154619
0.063715591951
0.0644502137828
0.066232306857
0.0662278517623
0.0662394218843
0.0661925875202
0.0661807009368
0.0660996652753
0.0660860743434
0.0660208062323
0.065984050841
0.0660155193988
0.0659118768905
0.0661278396317
0.0659154504276
0.0663002534725
0.0660083630177
0.0662512059102
0.0662426554491
0.0662497188624
0.0661616290823
0.0661621736803
0.0659803433113
0.0660183642547
0.0657332712543
0.0658336643745
0.0654391432313
0.0656272685324
0.0651525383677
0.0654335769499
0.0649841240766
0.065338159762
0.0663594111051
0.0663563303279
0.0663636027209
0.0663306561357
0.0663190998991
0.0662615512682
0.0662493868151
0.0661951005621
0.066175561916
0.0661610483049
0.0661210090179
0.0661776855967
0.0661084531541
0.0662280034304
0.0661454786615
0.0663758388716
0.0663705837782
0.0663750489822
0.0663200642085
0.0663127509531
0.0662049414653
0.0662131736483
0.0660571584925
0.0660923773027
0.0658968968036
0.0659706022022
0.065758820811
0.0658777057266
0.0656919611414
0.0658587471904
0.066452178366
0.0664492863295
0.0664544013962
0.0664274599418
0.0664171877817
0.0663699603344
0.0663604156354
0.0663088724558
0.0663005577073
0.0662626856791
0.0662546680769
0.0662451315353
0.066238231249
0.0662574566309
0.0662592537144
0.066464106216
0.0664607208438
0.0664643444127
0.0664297979854
0.0664199644323
0.066356660262
0.0663510587473
0.0662678681995
0.0662729733342
0.0661805785195
0.0662031459223
0.0661156083757
0.0661614342019
0.066093985383
0.0661672545266
0.0665014081778
0.0664950776967
0.0664877884042
0.0664568432238
0.0664457858576
0.0663966386184
0.0663866760849
0.0663276122015
0.06632298829
0.066265157605
0.0662706091017
0.0662249245375
0.0662452909026
0.0662185565333
0.0662582333493
0.0665056052431
0.0664949104585
0.0664865244328
0.0664536073442
0.0664424066064
0.0663897727548
0.0663796649447
0.0663148101771
0.0663108492044
0.0662444093436
0.0662523178659
0.0661957448662
0.0662212828033
0.0661836113366
0.0662313625037
0.0637320708144
0.0637295294818
0.0637222031759
0.063625818081
0.0635312152601
0.0633488091928
0.063195862524
0.062965203133
0.0626885703396
0.062532169299
0.0619666711768
0.0622951829697
0.0612853105766
0.0615836350951
0.0618787193849
0.0637606696025
0.0637595711712
0.063754123264
0.0636728250139
0.063583200203
0.0634356569309
0.063296546175
0.0631196063574
0.0629232045552
0.0627436994447
0.0625992186844
0.0622293037609
0.0627822474952
0.0612604039104
0.0613689975553
0.0637876880606
0.0637848745845
0.063780161042
0.0636869740862
0.0636115477162
0.0634329166791
0.0633255947215
0.0630927707641
0.0629282440717
0.0627357821952
0.0624570648626
0.0625777911922
0.0621324546221
0.0629044089228
0.0625556469865
0.0638480201975
0.0638473900853
0.0638443497378
0.0637792297965
0.0637056226014
0.0635859593059
0.0634784412979
0.063327208845
0.0631929728738
0.0630109431011
0.0629137950113
0.0626083176025
0.0627279951863
0.0621334137699
0.0621975384252
0.0638841652063
0.0638814093581
0.0638791858702
0.063799117862
0.0637448946509
0.0635896941878
0.0635255165601
0.0633150309377
0.0632446522508
0.0630283624071
0.0629524456225
0.0628405156891
0.0627641310802
0.0628761021845
0.0628274235235
0.0639623649316
0.0639620341876
0.0639609468073
0.06391223455
0.0638566837424
0.0637667260691
0.0636877356699
0.0635762387305
0.0634788870398
0.0633581956436
0.0632674108353
0.063128545584
0.0630961308545
0.0629460871481
0.0629556392753
0.0640019667576
0.0639996900334
0.0639990774063
0.06393706398
0.0638989945989
0.0637787959993
0.0637393833874
0.0635752468632
0.0635452183851
0.0633639452946
0.0633558991919
0.0632063808102
0.0632327839179
0.0631623658505
0.0632350180007
0.0640827324435
0.0640825870103
0.0640828957092
0.0640477771691
0.0640086930541
0.0639433700449
0.0638894016671
0.0638104743832
0.0637459196523
0.063669146804
0.0636055566778
0.0635440010995
0.0635026050347
0.0634755346835
0.0634741631795
0.0641201020366
0.0641185322006
0.0641189252579
0.0640745312612
0.0640477464455
0.0639621749754
0.0639356653488
0.063820536462
0.0638039385635
0.063676444831
0.0636810977133
0.0635679519628
0.0636038189027
0.0635304447695
0.0636056403143
0.0641901977418
0.0641900966616
0.0641913567064
0.0641659887981
0.0641397012639
0.0640920772088
0.0640573279797
0.0640004136899
0.0639616066244
0.0639088140278
0.0638735034918
0.0638380498775
0.0638178943545
0.0638116979879
0.0638195648888
0.0642203621927
0.0642194020449
0.0642207345332
0.0641904777642
0.0641714181931
0.0641134938376
0.0640941002822
0.0640183959152
0.064005997459
0.0639246712318
0.0639276628165
0.0638564608667
0.0638823782373
0.0638355258384
0.0638896488141
0.0642701916032
0.064269791368
0.0642718349161
0.0642521556263
0.0642344421703
0.0641976564142
0.0641756105967
0.0641317328994
0.0641099431352
0.0640691609384
0.0640535882441
0.0640258382216
0.0640236154867
0.0640161881107
0.0640340732963
0.0642892816692
0.0642885419874
0.0642896662001
0.0642682383632
0.0642535070365
0.0642142913828
0.0641978595972
0.064149285619
0.0641366896333
0.0640880542413
0.0640854996134
0.064046715828
0.0640598908144
0.0640386320196
0.064071353734
0.0643137302075
0.0643104723482
0.0643021101525
0.0642802867392
0.0642650545256
0.0642300811952
0.06421233486
0.0641705428148
0.0641550328918
0.0641149175546
0.0641074820487
0.0640776837635
0.0640841598949
0.0640710583595
0.0640957303247
0.0643196379415
0.0643122067288
0.0643025472344
0.0642797818004
0.0642646260064
0.0642285306367
0.0642109737557
0.0641676000926
0.064152577123
0.0641103641983
0.0641038413397
0.0640716119983
0.0640794816044
0.064063951245
0.0640904245477
0.0624358737292
0.0624249219955
0.0624460828537
0.0623266338806
0.0623584562608
0.0620885510082
0.0622138312101
0.0617384560969
0.0620456122812
0.0612428021147
0.0618896735901
0.0605581474886
0.0617021997347
0.0598809640505
0.0603470163881
0.0624492019271
0.0624386003181
0.0624602752787
0.0623471965038
0.0623779578144
0.0621292332351
0.062243922002
0.0618362493811
0.0620970106617
0.0615126036812
0.0619919149878
0.061305530223
0.0619881750568
0.0615190816021
0.0620043825556
0.062477191034
0.0624659570212
0.0624847569181
0.0623639864344
0.0623948576345
0.0621221294237
0.0622432414836
0.0617602895509
0.0620488881569
0.061249009763
0.0618162809987
0.0605919682134
0.0614768035175
0.0600045664344
0.0607957682999
0.0625318163002
0.0625244252949
0.0625429836589
0.0624627239828
0.0624801245464
0.0623136827185
0.0623789690392
0.0621421934659
0.0622739205757
0.0620104585355
0.0622089048929
0.0620166344756
0.0622300093094
0.0622068194391
0.0623329176391
0.0625542899256
0.0625447196399
0.0625585786556
0.0624564771338
0.0624754442128
0.0622526162061
0.0623352311231
0.0619606044163
0.0621516769166
0.0615812640741
0.0619326569463
0.0611593923539
0.0616761467375
0.0608565688696
0.0614372880586
0.0626337773105
0.0626289833582
0.0626430004979
0.0625890657087
0.0625960655106
0.062488930742
0.0625211418442
0.0623833462579
0.0624448180403
0.0623153510659
0.0623970197107
0.0623297360548
0.0624043532727
0.0624176232263
0.0624651851362
0.0626524533576
0.062645391856
0.0626543682564
0.0625781151371
0.0625849061695
0.0624254281624
0.0624698320475
0.0622182140062
0.0623228556338
0.061971867548
0.0621595724119
0.0617311317029
0.0620062867146
0.0615881756529
0.0619331719811
0.0627378983316
0.0627348361351
0.0627445073681
0.0627082058381
0.0627090106
0.0626388463559
0.0626529922874
0.0625670284114
0.0625959002723
0.0625188826956
0.0625577310416
0.0625157526329
0.0625548354275
0.0625517027967
0.0625895344079
0.0627540655999
0.0627493328731
0.0627549452429
0.0627023177975
0.0627014590254
0.0625958554075
0.0626150561714
0.0624584056058
0.0625092903451
0.0623073671715
0.0624013677453
0.0621750784454
0.0623177084739
0.0621094988824
0.0623006655665
0.0628293474738
0.0628272115165
0.0628336467732
0.0628079413977
0.0628056028356
0.0627570442557
0.0627621430226
0.0627033662712
0.0627176631721
0.0626634603736
0.0626863746471
0.0626502850224
0.0626799899391
0.0626647815256
0.06270307315
0.0628429007153
0.0628398733405
0.0628439968543
0.0628092000248
0.0628050964728
0.0627378316119
0.0627436288883
0.0626496281233
0.062672022291
0.062559432899
0.0626051880952
0.0624883272338
0.0625622580754
0.0624608308789
0.0625651871301
0.0628967406724
0.0628947760299
0.0628995626673
0.0628791640628
0.0628754492883
0.0628381186217
0.0628388213397
0.0627934728511
0.0628011718137
0.0627572212575
0.0627737618978
0.0627396476432
0.0627662889469
0.0627455717596
0.0627840852311
0.0629062289306
0.0629041553492
0.0629078056943
0.0628841951568
0.0628792331146
0.0628361289984
0.0628352041501
0.0627792073082
0.06278681284
0.0627254845548
0.0627461796976
0.062688548525
0.0627260728705
0.0626808537092
0.0627372144145
0.0629327590833
0.0629283334076
0.0629241013796
0.0629016379437
0.0628962665988
0.0628602407064
0.0628576189423
0.0628134232234
0.0628169954388
0.0627718936393
0.0627852670572
0.0627465584198
0.0627728255784
0.0627457142022
0.0627867612205
0.0629359566591
0.0629282570515
0.0629232108069
0.0628996045652
0.0628940144001
0.0628561970407
0.0628530957052
0.0628061616959
0.0628093752869
0.0627605016797
0.062774091699
0.062730936011
0.0627585321806
0.0627272517594
0.0627709982847
0.0605390134163
0.0605387021716
0.0605392659738
0.0604909759944
0.0604515176873
0.0603576615832
0.0603070335346
0.0601836448029
0.0601233717912
0.0599954385726
0.0599327347439
0.059838033259
0.0598114974646
0.0597460879831
0.0598751175251
0.060557678445
0.0605579488397
0.0605595857201
0.0605170115703
0.0604807668924
0.0603993321935
0.0603536057093
0.060251542542
0.0602014679167
0.0600991959644
0.0600638088302
0.0599700255583
0.0599959427412
0.0598906987042
0.0599393844331
0.0605767509077
0.0605763993527
0.0605775995671
0.0605312094064
0.060497847851
0.0604077164999
0.0603685049323
0.0602502559609
0.0602095386533
0.06008869867
0.0600545220032
0.059972005032
0.0599641979272
0.0599414723398
0.0600015692505
0.0606153776981
0.0606157688656
0.0606180877463
0.0605823113171
0.0605520622288
0.0604826751807
0.0604461468685
0.0603568531613
0.0603215092075
0.0602240537635
0.0602070156756
0.0601061941629
0.0601335384081
0.0600369963766
0.0600989043188
0.0606402990584
0.0606398816301
0.0606416531424
0.0606010343197
0.0605754599568
0.0604962742902
0.0604698198595
0.0603647703886
0.0603445626367
0.0602324739117
0.0602282959758
0.0601368186849
0.0601609873053
0.060110396576
0.0601752411223
0.0606908195637
0.0606912097361
0.0606939049017
0.0606657295898
0.0606423858514
0.0605872730209
0.0605597795797
0.0604891005618
0.0604636901952
0.0603880041392
0.0603755496504
0.0603042547512
0.0603187694378
0.0602654648278
0.0603120676944
0.0607180407838
0.0607176163292
0.0607197092223
0.0606870574758
0.0606683574767
0.0606046270885
0.0605871942885
0.0605024851382
0.060493492343
0.0604011823771
0.0604093687274
0.060327449146
0.0603613223405
0.0603048633359
0.0603701654371
0.0607709383783
0.0607712850308
0.0607740731074
0.0607527797393
0.0607358555286
0.0606939240274
0.0606745250629
0.0606213890075
0.0606044572982
0.0605495367711
0.0605421708767
0.0604951316831
0.0605057934578
0.0604768729704
0.0605118556458
0.060796657434
0.0607963790547
0.0607986097616
0.060774091967
0.0607607132342
0.0607128380008
0.0607009811332
0.0606379052348
0.0606335287092
0.0605650713256
0.0605749763137
0.0605132557003
0.0605434787266
0.0604990164833
0.0605530737403
0.0608431873717
0.0608434449369
0.0608462101875
0.060830184142
0.0608183944013
0.0607867387172
0.0607737505828
0.0607341111486
0.0607239833931
0.0606840886271
0.0606819003253
0.0606495978373
0.0606608491891
0.0606428605612
0.0606718482607
0.060863983753
0.0608638396884
0.0608662971801
0.0608485751745
0.0608390429044
0.0608044604743
0.060795940417
0.0607512600546
0.0607484035997
0.0607010513829
0.0607089391458
0.0606672320909
0.0606902241938
0.0606611313493
0.0607015943116
0.0608974100311
0.0608973861938
0.0609002298737
0.0608873320901
0.0608790546221
0.0608540227629
0.0608453948795
0.0608145045101
0.0608090309748
0.0607784669907
0.0607800990069
0.0607559321057
0.0607684558492
0.0607553100134
0.0607813283545
0.060910557318
0.0609103658737
0.0609123506597
0.0608986835422
0.0608913558356
0.0608658978482
0.0608588078369
0.060827198081
0.0608239841812
0.0607921221567
0.0607966791932
0.0607705379679
0.0607862074144
0.0607703176521
0.0607989808485
0.0609270473119
0.0609249927227
0.0609203803559
0.0609056327467
0.0608979768413
0.060874161767
0.0608665138504
0.0608376888477
0.0608332587824
0.0608048433202
0.0608073582125
0.0607848270214
0.0607976582553
0.0607851526036
0.06081034342
0.0609310702487
0.0609260383599
0.0609205589193
0.0609052157763
0.0608975607836
0.0608731419282
0.0608654736048
0.0608358890087
0.0608315143027
0.0608021674622
0.0608048788589
0.060781355467
0.0607945658541
0.0607811254331
0.0608068882924
0.0591974922746
0.0591923520295
0.0592033348243
0.0591463453581
0.05915811253
0.0590370340763
0.0590839581778
0.0588941815661
0.0589966400045
0.0587306691009
0.0589100291
0.0585727810631
0.0588275360841
0.0584755054099
0.0587303641371
0.0592058103842
0.0592007669045
0.059212059424
0.0591557403983
0.0591680418182
0.0590490564411
0.0590963349777
0.0589123010517
0.0590145963166
0.0587648671928
0.0589417684428
0.0586450981621
0.0588942882375
0.0586094958793
0.058880739408
0.0592263595114
0.0592212460234
0.0592311298979
0.0591743377019
0.0591847664637
0.059064752322
0.0591082183059
0.0589188282379
0.0590142290694
0.0587475503547
0.0589141445357
0.0585787371732
0.0588177761313
0.0584740838858
0.0587527895831
0.059258779676
0.0592548836441
0.0592652682924
0.0592213099255
0.0592303921124
0.0591400770196
0.0591743987319
0.0590435004327
0.0591139488794
0.0589530490714
0.0590665334463
0.0588977442534
0.0590476024697
0.0588992043783
0.0590654704789
0.0592770996279
0.0592725298552
0.0592802957064
0.0592309912068
0.0592372605329
0.0591353541335
0.059166732613
0.0590104066646
0.0590801723103
0.0588691854364
0.0589900655063
0.0587391628673
0.0589139675927
0.0586683928982
0.0588878515726
0.0593248567274
0.0593219801877
0.05933029424
0.0592980521382
0.0593033373933
0.059238675323
0.0592606091697
0.0591716768915
0.0592159954873
0.0591142376809
0.0591834302562
0.0590845745846
0.0591746819785
0.059091128848
0.0591953312691
0.0593407607875
0.0593373414334
0.059342876632
0.0593043275287
0.0593064353843
0.0592289017266
0.0592477138608
0.0591333855375
0.0591773831007
0.059030977389
0.0591081979915
0.0589441018019
0.0590580673687
0.058903987499
0.0590532566612
0.0593928960962
0.0593910475466
0.0593971866156
0.0593740141798
0.0593762598585
0.0593307649093
0.0593435787417
0.0592832779499
0.0593100947202
0.0592440709825
0.059286485621
0.0592248727221
0.0592816637688
0.0592308935443
0.0593000969233
0.0594068251386
0.0594044857842
0.0594084480571
0.0593802972443
0.0593797440994
0.0593246999318
0.0593344280269
0.0592565662062
0.0592820394781
0.0591873984898
0.0592339201352
0.0591335450253
0.0592043905135
0.0591138979356
0.0592095341711
0.0594536427961
0.0594523067304
0.0594567753855
0.0594396952342
0.0594399788948
0.0594072957153
0.0594142625015
0.0593720821731
0.0593882603171
0.0593432849704
0.0593703339083
0.0593293022903
0.0593675590543
0.0593346960814
0.0593838439765
0.0594650051227
0.0594634189808
0.0594667039329
0.0594468096124
0.0594451944174
0.0594073270934
0.0594117778701
0.0593604632061
0.0593747229516
0.0593155360411
0.0593433018357
0.0592839297165
0.0593278368006
0.0592768978224
0.0593376743078
0.0594990084084
0.0594977704256
0.0595014844688
0.0594877701821
0.0594870335053
0.0594617042497
0.0594652794675
0.0594333115624
0.0594434698414
0.059409961681
0.0594285943698
0.0593985138111
0.0594267317011
0.0594034602283
0.0594414855676
0.0595066450936
0.0595054551967
0.0595085601002
0.0594938563487
0.059492179724
0.0594654509456
0.0594671968186
0.0594328387996
0.0594408427741
0.0594036374531
0.059420611195
0.0593858499246
0.0594138721954
0.0593863182386
0.0594260661928
0.0595235593918
0.0595207228778
0.0595186673129
0.059503819589
0.0595020564266
0.0594781733186
0.059479422581
0.0594498224333
0.0594564421589
0.0594255541523
0.0594398529692
0.0594122600972
0.0594360648671
0.0594152953037
0.0594492548145
0.0595260200934
0.0595209262453
0.0595183449669
0.0595028976811
0.0595010372339
0.0594763391983
0.0594772921614
0.0594465534865
0.0594529121442
0.0594206026815
0.0594346282662
0.0594054233223
0.059429424089
0.0594072572282
0.0594419945281
0.0574062506236
0.0574065021081
0.0574091776536
0.0573862676205
0.0573728238471
0.0573268560299
0.0573140571667
0.0572527530197
0.0572456370137
0.0571779403292
0.0571839987074
0.0571203642343
0.0571502998459
0.0570977789258
0.057162342561
0.0574174731427
0.0574178257784
0.0574209999459
0.0574001297417
0.0573881379404
0.0573461213167
0.0573352484836
0.0572804775142
0.0572755184245
0.0572171384853
0.0572247736309
0.0571718725234
0.0571996961557
0.0571585979749
0.0572073974983
0.0574306024178
0.057430773073
0.0574335362613
0.0574117256559
0.0574000085699
0.0573560658361
0.0573459359644