/*--------------------------------*- C++ -*----------------------------------*\
| =========                 |                                                 |
| \\      /  F ield         | OpenFOAM: The Open Source CFD Toolbox           |
|  \\    /   O peration     | Version:  2406                                  |
|   \\  /    A nd           | Website:  www.openfoam.com                      |
|    \\/     M anipulation  |                                                 |
\*---------------------------------------------------------------------------*/
FoamFile
{
    version     2.0;
    format      ascii;
    arch        "LSB;label=32;scalar=64";
    class       surfaceScalarField;
    location    "0.01";
    object      phi;
}
// * * * * * * * * * * * * * * * * * * * * * * * * * * * * * * * * * * * * * //

dimensions      [0 3 -1 0 0 0 0];

oriented        oriented;

internalField   nonuniform List<scalar> 
85770
(
3.09775699941e-08
-1.57007940845e-08
0.000885962194399
6.44068717885e-08
-1.74021616972e-08
0.000889029875824
9.93116399567e-08
-1.87367448405e-08
0.000889221850503
1.41853009552e-07
-2.36851486197e-08
0.000889258445728
1.89457198614e-07
-2.78833310443e-08
0.000889293180067
2.62180214101e-07
-4.43833239022e-08
0.000889262595321
3.38604392251e-07
-5.05686884982e-08
0.000889263492429
4.97673098551e-07
-1.08515955554e-07
0.000889270108674
6.19238596472e-07
-1.0774303679e-07
0.00088924632485
1.3955660674e-06
-5.28315220761e-07
0.000889181241222
1.26886002844e-06
3.17049435448e-08
0.00088929057174
0
-7.53864931667e-07
0.000889273625267
0
-0
0
0
-0
0
-0
0
2.94518964208e-08
-2.5963193306e-08
0.000885964949143
6.07000771681e-08
-2.84274250481e-08
0.000889032760648
9.37386969672e-08
-3.08097756446e-08
0.000889224611803
1.31229248278e-07
-3.74408857977e-08
0.000889261592102
1.75667316019e-07
-4.59461648801e-08
0.000889295580642
2.29662530093e-07
-6.46079538329e-08
0.000889267007844
3.02174732955e-07
-8.40746207013e-08
0.000889264056886
3.8007173994e-07
-1.32382204605e-07
0.000889282041003
5.19363976982e-07
-1.81571737902e-07
0.000889239597784
4.10393193395e-07
-3.41094884503e-07
0.000889215339446
1.15502479982e-06
-4.82153396564e-07
0.000889198632747
1.20061969361e-06
-9.319014818e-07
0.000889208708666
0
-1.08720653207e-06
0.000889229225194
0
0
0
-0
0
2.79837942178e-08
-3.50014709347e-08
0.000885962762323
5.76541709215e-08
-3.81426974897e-08
0.000889030496437
8.81342471572e-08
-4.08256565556e-08
0.000889222487762
1.23891218299e-07
-4.98287963957e-08
0.000889259293611
1.6228554383e-07
-5.92590303898e-08
0.000889294053227
2.15582274158e-07
-8.42408507788e-08
0.00088926441842
2.69055093039e-07
-1.02684516996e-07
0.000889265203621
3.58010484696e-07
-1.6340769274e-07
0.000889278144087
4.25387522965e-07
-1.98617176783e-07
0.000889256502224
5.53733685354e-07
-3.4907883626e-07
0.000889209029646
5.29321151785e-07
-4.20891240765e-07
0.000889261033534
6.4520574733e-07
-6.22546617782e-07
0.000889138550879
6.14476633106e-07
-1.16143476073e-06
0.000889253389126
1.44439071563e-07
-7.44582877228e-07
0.00088927239713
-1.06249854517e-06
0.000889229573321
2.44616576532e-08
-4.12618955274e-08
0.000885955164126
4.99053550403e-08
-4.45908128692e-08
0.000889023067374
7.65507864203e-08
-4.77761747953e-08
0.000889214913848
1.047550682e-07
-5.65048745683e-08
0.00088925233104
1.3684653034e-07
-6.75495041198e-08
0.000889286331822
1.70496893379e-07
-8.98454152913e-08
0.000889259311207
2.12547840335e-07
-1.11885953989e-07
0.000889256620558
2.48018099872e-07
-1.59341844154e-07
0.000889280548742
2.99508742958e-07
-1.9971980446e-07
0.000889245155453
3.04938018739e-07
-3.0173841322e-07
0.000889244841917
3.29760723715e-07
-3.62614768528e-07
0.000889239551359
2.60078634194e-07
-5.41196038846e-07
0.000889240025009
-1.45117593812e-07
-5.55425488852e-07
0.00088917353401
-1.50945254327e-07
-9.10981971182e-07
0.000889327103756
-1.2330306257e-06
0.000889252087322
2.2625109646e-08
-4.59641643477e-08
0.000885982489268
4.59663029631e-08
-4.92894196732e-08
0.000889050400622
6.9619393279e-08
-5.23749970352e-08
0.000889242389488
9.54826348301e-08
-6.13649799795e-08
0.000889279641912
1.22299460919e-07
-7.19685195876e-08
0.000889314318339
1.53984006218e-07
-9.39150675713e-08
0.000889286370811
1.85227537968e-07
-1.13855478917e-07
0.000889286304221
2.2299579531e-07
-1.55859414136e-07
0.000889306039793
2.54846785305e-07
-1.90749794521e-07
0.000889281042988
2.83193622031e-07
-2.62639992256e-07
0.000889264091333
3.02831227162e-07
-3.24623483144e-07
0.000889298637012
2.80468123674e-07
-4.06693174861e-07
0.000889234240261
3.28854308484e-07
-5.14964493318e-07
0.000889265217876
1.35541258102e-07
-5.42858827011e-07
0.000889213993729
-6.72466665435e-07
0.000889210230644
1.86620417164e-08
-4.76377679045e-08
0.000885956465024
3.77485063853e-08
-5.08021190011e-08
0.000889024463666
5.73763699409e-08
-5.38639355331e-08
0.000889216379319
7.70912868249e-08
-6.18229683631e-08
0.000889254101711
9.79489961458e-08
-7.19966574667e-08
0.000889288393245
1.17821228338e-07
-9.06173744739e-08
0.000889262120788
1.39261076341e-07
-1.09036330385e-07
0.000889260412577
1.55451265312e-07
-1.42570151981e-07
0.000889285651413
1.71644788736e-07
-1.71529648285e-07
0.000889254876384
1.7302568383e-07
-2.27159071755e-07
0.000889255139722
1.63441063741e-07
-2.66143619581e-07
0.00088927264912
1.39284245054e-07
-3.43645929371e-07
0.000889253461446
6.95057282879e-08
-3.82766286426e-07
0.000889244747172
2.10761644843e-08
-4.64901230457e-07
0.000889265048739
-5.29043315088e-07
0.000889248329
1.69306999785e-08
-4.78228310392e-08
0.000885957359003
3.39798623704e-08
-5.06335557166e-08
0.000889025279174
5.10457456017e-08
-5.3386267575e-08
0.000889217271724
6.85036760138e-08
-6.05913855565e-08
0.000889254902306
8.58588481565e-08
-6.96555981045e-08
0.000889289593852
1.03515452069e-07
-8.57955812494e-08
0.000889262852101
1.20082635221e-07
-1.01697462628e-07
0.000889262420031
1.35127822158e-07
-1.28242741941e-07
0.000889285755226
1.47041648804e-07
-1.52829914478e-07
0.000889258846089
1.50625881846e-07
-1.90097858546e-07
0.000889252632902
1.5011127752e-07
-2.25375905939e-07
0.000889280715517
1.25881762152e-07
-2.63195888354e-07
0.000889243723825
1.03562848991e-07
-3.07172291869e-07
0.000889255360865
3.15715498232e-08
-3.21075207781e-07
0.000889245726994
-3.55382697631e-07
0.000889244983005
1.35361468296e-08
-4.55014992593e-08
0.000885984544505
2.71905359588e-08
-4.79979615929e-08
0.000889052693491
4.09898393585e-08
-5.04676131937e-08
0.000889244687279
5.42941334421e-08
-5.65290740654e-08
0.000889282597913
6.73634978856e-08
-6.43936693764e-08
0.000889317166786
7.88333192356e-08
-7.76667830609e-08
0.000889291269567
8.93924268687e-08
-9.09165748725e-08
0.000889290279367
9.62297728171e-08
-1.12093979976e-07
0.000889315894588
1.00162236922e-07
-1.30896335137e-07
0.00088928718468
9.74703681351e-08
-1.60456818464e-07
0.000889286629775
8.70412421819e-08
-1.83357590231e-07
0.000889310099479
7.05018981368e-08
-2.16950630913e-07
0.000889284718367
3.85938521925e-08
-2.38743752339e-07
0.000889288271451
9.09687607265e-09
-2.62032394316e-07
0.000889294405314
-2.76098559496e-07
0.000889288000051
1.21292525821e-08
-4.19486826923e-08
0.000885958868984
2.413181049e-08
-4.40060347702e-08
0.000889026850878
3.60315468035e-08
-4.61176999025e-08
0.000889218838674
4.75630259644e-08
-5.11869717218e-08
0.000889256696171
5.84816465929e-08
-5.77937272692e-08
0.000889291461321
6.8242485464e-08
-6.85276769021e-08
0.000889265386417
7.66079480371e-08
-7.94182890903e-08
0.0008892649412
8.21921466744e-08
-9.54317147718e-08
0.000889289885601
8.52601645164e-08
-1.10622231857e-07
0.000889262515078
8.23684583405e-08
-1.30534320288e-07
0.000889259960834
7.60964545422e-08
-1.49209044394e-07
0.000889286339223
5.94614057254e-08
-1.67592947417e-07
0.000889256359058
3.96095468087e-08
-1.86025723824e-07
0.000889264704585
7.79412289469e-09
-1.93016605293e-07
0.000889264276693
-2.02411641634e-07
0.000889262333258
9.67842825773e-09
-3.66506058296e-08
0.000885959417536
1.93176567555e-08
-3.83406683033e-08
0.000889027462095
2.89434009086e-08
-4.01189772332e-08
0.000889219318809
3.79187376262e-08
-4.41743922496e-08
0.000889257243183
4.61777161232e-08
-4.95147179384e-08
0.000889291967397
5.28581036998e-08
-5.800964542e-08
0.000889266266283
5.8098489364e-08
-6.65374499289e-08
0.000889265683837
6.06543077589e-08
-7.90252608224e-08
0.000889291501054
6.05839269067e-08
-9.02365459193e-08
0.000889263674093
5.6811560257e-08
-1.05768055716e-07
0.000889262926664
4.86518019202e-08
-1.18224693916e-07
0.000889288216532
3.72133775458e-08
-1.33483328298e-07
0.000889261342162
1.99137145911e-08
-1.43880034201e-07
0.000889267896141
2.51430682355e-09
-1.52294538974e-07
0.000889271089785
-1.55698496559e-07
0.000889267405943
8.66297135981e-09
-3.04436945657e-08
0.000885986755966
1.71294685116e-08
-3.17091948678e-08
0.000889054548774
2.55048668407e-08
-3.31882582605e-08
0.000889245496161
3.32867194568e-08
-3.63283091047e-08
0.000889283015331
4.02886011385e-08
-4.05074922217e-08
0.00088931770498
4.58826617931e-08
-4.69475269971e-08
0.000889291917751
5.00908625374e-08
-5.35184426025e-08
0.000889291549739
5.19046978903e-08
-6.26036843869e-08
0.000889317171351
5.17068333242e-08
-7.11218875629e-08
0.000889289801274
4.78696738837e-08
-8.16545484129e-08
0.000889288509304
4.1620979537e-08
-9.10630098545e-08
0.000889314633582
3.08040776497e-08
-1.00255731221e-07
0.00088928663748
1.78297203744e-08
-1.08137603257e-07
0.000889294391001
1.31722854014e-09
-1.1194485944e-07
0.000889296071444
-1.145603093e-07
0.000889293577843
7.2125776609e-09
-2.32547663633e-08
0.000885960416181
1.42965214193e-08
-2.41292000715e-08
0.000889026049205
2.13743040471e-08
-2.53496661191e-08
0.000889212829561
2.77856857933e-08
-2.7623290787e-08
0.000889248876808
3.33771142436e-08
-3.0674048375e-08
0.00088928308662
3.75510506712e-08
-3.5359999857e-08
0.000889257323573
4.0343036473e-08
-4.00631247961e-08
0.000889256919927
4.10918866647e-08
-4.66782485676e-08
0.000889282845248
3.98622702608e-08
-5.25732915226e-08
0.000889255395345
3.62058403717e-08
-6.02925236233e-08
0.00088925465965
3.00479906008e-08
-6.64452157568e-08
0.00088928056438
2.18221020336e-08
-7.34445327344e-08
0.000889253398778
1.11067746208e-08
-7.8100513185e-08
0.000889260771244
-1.87261864842e-10
-8.16456956765e-08
0.000889263326895
-8.2524656072e-08
0.000889260346603
6.6702550087e-09
-1.55803097713e-08
0.000885956719616
1.32102796737e-08
-1.61266579847e-08
0.000889008672536
1.97318584068e-08
-1.7127952965e-08
0.000889181504636
2.55955990862e-08
-1.85712004613e-08
0.000889212830912
3.06428409106e-08
-2.05629231878e-08
0.000889245547352
3.43398977735e-08
-2.35902877519e-08
0.000889219372553
3.67309820918e-08
-2.66276578379e-08
0.000889218978967
3.71920581527e-08
-3.08680712875e-08
0.000889244833508
3.59624420609e-08
-3.46435524647e-08
0.000889217538277
3.23574652374e-08
-3.9457994437e-08
0.000889216667464
2.69253378682e-08
-4.3371204596e-08
0.000889242809595
1.91473192269e-08
-4.75352417105e-08
0.000889215391357
9.93059289509e-09
-5.04884334315e-08
0.00088922306609
-6.50015419857e-10
-5.24163560591e-08
0.000889225289389
-5.30024305402e-08
0.000889222597932
6.36066743522e-09
-7.82340014708e-09
0.000885866883211
1.25798316288e-08
-8.05431107023e-09
0.000888883792945
1.85389553222e-08
-8.6177174551e-09
0.000889008700983
2.3857829147e-08
-9.29050154263e-09
0.000889026070949
2.84120121608e-08
-1.02839636382e-08
0.00088905464709
3.1633955818e-08
-1.17689488076e-08
0.000889027550674
3.36343519984e-08
-1.32423209574e-08
0.000889027071451
3.37840914278e-08
-1.53560083691e-08
0.000889052908167
3.23638341896e-08
-1.71429992498e-08
0.000889025685612
2.88432135828e-08
-1.95851147048e-08
0.000889024883742
2.36236629626e-08
-2.1366540985e-08
0.000889051059878
1.65902406191e-08
-2.35622209391e-08
0.000889023779149
8.19821685173e-09
-2.48087605209e-08
0.000889031442232
-1.01857567844e-09
-2.59730020606e-08
0.000889033807592
-2.60547255536e-08
0.000889031047403
6.23873247772e-09
0.000882063793871
1.23223568362e-08
0.000885866872595
1.7965275855e-08
0.000885956756229
2.30490382159e-08
0.000885960416205
2.73646862047e-08
0.000885986864438
3.03997922987e-08
0.000885959458988
3.22717587572e-08
0.000885959085388
3.23260880535e-08
0.000885984668185
3.09428918913e-08
0.000885957718274
2.7461094431e-08
0.000885956721378
2.2514891727e-08
0.000885983016308
1.56696962754e-08
0.000885955601071
7.7658629102e-09
0.000885963458918
-1.16486777027e-09
0.000885965583795
0.000885963043443
2.87498567452e-08
-1.65168359338e-08
0.000885944164921
5.98416292288e-08
-1.81358043637e-08
0.000889011024223
9.2106070172e-08
-1.89990950964e-08
0.000889202394641
1.31192903853e-07
-2.44804378359e-08
0.000889236816398
1.74540423607e-07
-2.79958736069e-08
0.000889269277503
2.40168098611e-07
-4.6700901632e-08
0.000889232809957
3.11061428841e-07
-5.11227104683e-08
0.000889229101497
4.54402538642e-07
-1.16796184483e-07
0.000889223010158
5.81508829105e-07
-1.07465218468e-07
0.000889194910641
1.03122036188e-06
-3.9030002721e-07
0.00088907937742
9.6950315835e-07
-2.07935840222e-09
0.000889197363889
0
-4.82697893098e-07
0.000888576049322
0
-0
0
-0
-0
0
-0
0
2.69614628958e-08
-2.57673410545e-08
0.000885947237998
5.56052376683e-08
-2.83150116284e-08
0.0008890142958
8.57265693905e-08
-3.00939654338e-08
0.000889205585075
1.18906587295e-07
-3.6858700625e-08
0.000889240790065
1.57591436597e-07
-4.38492968797e-08
0.000889272748922
2.00464303246e-07
-6.25682126782e-08
0.000889240001985
2.59133836072e-07
-7.85723481116e-08
0.000889232836674
3.0345178825e-07
-1.24217635579e-07
0.000889245144171
4.03832185589e-07
-1.64642159355e-07
0.000889196393945
3.30159386733e-07
-2.81108856677e-07
0.000889179820643
7.94272570061e-07
-3.85108804454e-07
0.000889117548426
8.2895161202e-07
-5.91017189849e-07
0.000889282347882
0
-8.17372105723e-07
0.00088849817289
0
-0
0
-0
0
2.61772783541e-08
-3.43480536414e-08
0.000885945165564
5.3874338164e-08
-3.77282396157e-08
0.000889012212324
8.20663658103e-08
-3.95785976412e-08
0.0008892037801
1.14948512568e-07
-4.91285227735e-08
0.000889238681006
1.49478702644e-07
-5.61275522789e-08
0.000889271801003
1.96414266528e-07
-8.2317093417e-08
0.000889237231431
2.42169867778e-07
-9.43385384655e-08
0.000889235213902
3.12721642053e-07
-1.54820139828e-07
0.000889238194466
3.63942587802e-07
-1.73499997682e-07
0.000889214138778
4.42397657488e-07
-3.01309781986e-07
0.000889150775043
4.52430855197e-07
-3.4198907299e-07
0.000889207880177
4.66914481954e-07
-4.94887618985e-07
0.000889027937077
4.90293314052e-07
-8.26967450559e-07
0.000889239604558
1.20253227582e-07
-6.44135565159e-07
0.000888634998096
-8.91652385937e-07
0.000888558131331
2.21072268562e-08
-3.96347952831e-08
0.000885938343453
4.50808276892e-08
-4.32972297696e-08
0.000889005662491
6.9132910505e-08
-4.57463647954e-08
0.000889197029274
9.3526848965e-08
-5.4487375383e-08
0.000889233295685
1.21153825775e-07
-6.31001125155e-08
0.000889265677122
1.468052835e-07
-8.49158829212e-08
0.000889236258251
1.80372693353e-07
-1.01414761854e-07
0.000889230129063
1.99705743926e-07
-1.45018158579e-07
0.000889251413397
2.36278662567e-07
-1.74086816696e-07
0.000889209168984
2.2383446832e-07
-2.55218648919e-07
0.000889211194624
2.264737618e-07
-2.98753931634e-07
0.000889193676447
1.78179469695e-07
-4.21266342731e-07
0.000889214697625
-1.51038213327e-07
-4.3548243876e-07
0.000889111266116
-1.22790692481e-07
-6.7425071939e-07
0.000889328970407
-9.97579870162e-07
0.000889195320866
2.1376136294e-08
-4.4243656024e-08
0.000885965721811
4.32491708717e-08
-4.79354619227e-08
0.000889033165557
6.52463787153e-08
-5.0247201839e-08
0.000889224892869
8.91217379492e-08
-5.95154078121e-08
0.000889260794325
1.13592004565e-07
-6.75943956902e-08
0.000889294342087
1.41833432018e-07
-8.98841016612e-08
0.00088926309732
1.69588396543e-07
-1.0407935085e-07
0.000889261213563
2.00813326728e-07
-1.45092667361e-07
0.000889274889058
2.28666973388e-07
-1.68594597599e-07
0.000889247696813
2.4859891676e-07
-2.32111998825e-07
0.000889221052358
2.69491349774e-07
-2.75385391189e-07
0.000889254375692
2.40565170726e-07
-3.35826251581e-07
0.000889177725873
2.91183197437e-07
-4.27060137852e-07
0.000889206177143
1.22759746119e-07
-4.28197210309e-07
0.000889136363103
-5.65209418116e-07
0.000889115555998
1.68900136813e-08
-4.53167796229e-08
0.000885940647959
3.40678105698e-08
-4.88934877244e-08
0.000889008243643
5.17278527161e-08
-5.13410471266e-08
0.000889199812884
6.87313424437e-08
-5.92569891815e-08
0.000889236839555
8.67074014369e-08
-6.72108215893e-08
0.000889270033352
1.01958241683e-07
-8.54162607346e-08
0.000889242401842
1.19048117413e-07
-9.92251842701e-08
0.000889238468257
1.28082969385e-07
-1.30856576313e-07
0.000889262380192
1.38672424647e-07
-1.51701759715e-07
0.00088922739378
1.33682358926e-07
-2.00343962281e-07
0.000889228361446
1.21079633587e-07
-2.28078417136e-07
0.000889237944505
1.02735413524e-07
-2.89938070406e-07
0.000889225917152
3.8309428312e-08
-3.20495025822e-07
0.000889202607635
1.51097516978e-08
-3.821211852e-07
0.000889242172034
-4.56218576977e-07
0.000889206571416
1.61973007662e-08
-4.5698096616e-08
0.000885941542853
3.22579518049e-08
-4.88818136321e-08
0.000889009206609
4.82155999757e-08
-5.10867803379e-08
0.000889201059583
6.43788273906e-08
-5.83708976815e-08
0.00088923785275
8.04748813205e-08
-6.55149285001e-08
0.00088927180166
9.63869075285e-08
-8.15910367064e-08
0.000889243114593
1.1170042861e-07
-9.36248682086e-08
0.000889241505934
1.24357594111e-07
-1.19340960019e-07
0.000889261582168
1.35810652146e-07
-1.3747408973e-07
0.000889233165089
1.37038927158e-07
-1.7115978733e-07
0.000889222220145
1.39075765164e-07
-1.98042528381e-07
0.000889248642495
1.14556910912e-07
-2.27669475925e-07
0.000889205973736
9.93657214621e-08
-2.6577199251e-07
0.000889215828706
3.18155409567e-08
-2.70604295577e-07
0.000889201759908
-3.08692163606e-07
0.000889198222487
1.24410422496e-08
-4.32186968367e-08
0.000885969623906
2.48103564013e-08
-4.60845230854e-08
0.000889037526659
3.72375651833e-08
-4.81364304117e-08
0.000889229309505
4.87899680174e-08
-5.4143993092e-08
0.000889266818382
6.01450694233e-08
-6.04244161196e-08
0.000889300720936
6.91835722415e-08
-7.34126579577e-08
0.000889274052443
7.7679406277e-08
-8.36420033435e-08
0.000889271800414
8.15680462805e-08
-1.03988727542e-07
0.00088929665346
8.35531965364e-08
-1.18053150632e-07
0.00088926577832
7.90872860445e-08
-1.45359914275e-07
0.000889265295544
6.83511460936e-08
-1.6240965499e-07
0.000889285202451
5.50935973158e-08
-1.91805442033e-07
0.000889262111597
2.66102886253e-08
-2.09394647006e-07
0.000889260377101
6.82305193069e-09
-2.28495899587e-07
0.000889272083864
-2.44520076496e-07
0.000889259642353
1.17809739259e-08
-4.00470945298e-08
0.000885943916259
2.31589120972e-08
-4.24095021337e-08
0.000889011797702
3.43098608264e-08
-4.41878317853e-08
0.000889203738923
4.49850982987e-08
-4.92487658254e-08
0.000889241125494
5.51994686434e-08
-5.46096705634e-08
0.000889275431983
6.40437732703e-08
-6.51706101638e-08
0.000889248299832
7.19660895197e-08
-7.37568453506e-08
0.000889247133488
7.66388563917e-08
-8.92181585164e-08
0.000889270442015
7.99360836247e-08
-1.00988738085e-07
0.000889242153187
7.64476426904e-08
-1.19373698059e-07
0.00088923746279
7.16969336799e-08
-1.34139668724e-07
0.000889262819681
5.5306097376e-08
-1.496748679e-07
0.000889230619033
3.82132841303e-08
-1.65600566221e-07
0.000889238003038
7.56706262043e-09
-1.69821064142e-07
0.000889236247772
-1.80069466161e-07
0.000889233848715
9.13618150075e-09
-3.49388538495e-08
0.000885945172972
1.79880768487e-08
-3.6894197971e-08
0.000889013094688
2.66881230725e-08
-3.84255550841e-08
0.000889204856291
3.45633639157e-08
-4.24390584459e-08
0.000889242558034
4.18253157504e-08
-4.68095123873e-08
0.000889276905076
4.72639924064e-08
-5.51156006951e-08
0.000889250772379
5.15656157026e-08
-6.18949434351e-08
0.000889249520083
5.29605915952e-08
-7.39972195454e-08
0.000889274884904
5.23126872413e-08
-8.26945133495e-08
0.000889246027526
4.81969573528e-08
-9.74640447231e-08
0.000889245132491
4.0405330591e-08
-1.07071019184e-07
0.000889268939248
3.0616998905e-08
-1.21227877113e-07
0.000889242683242
1.51443498542e-08
-1.29565148988e-07
0.000889247333099
1.4562123553e-09
-1.37213841053e-07
0.00088925217043
-1.40514095825e-07
0.000889246565693
8.5450622292e-09
-2.91969769719e-08
0.000885972468892
1.66124578433e-08
-3.06700137355e-08
0.000889040256994
2.44466885951e-08
-3.19870575157e-08
0.000889231223247
3.16291925852e-08
-3.51077067208e-08
0.000889268501284
3.81807595001e-08
-3.85777567501e-08
0.000889302921458
4.32501169349e-08
-4.48636592274e-08
0.000889276596244
4.72620531801e-08
-5.01672472643e-08
0.000889275809891
4.87018197459e-08
-5.89173960925e-08
0.000889300651535
4.87305710032e-08
-6.56859522425e-08
0.00088927276373
4.47919543376e-08
-7.55564597289e-08
0.000889270540093
3.9332195853e-08
-8.3099482976e-08
0.000889296121559
2.87902090697e-08
-9.13138752089e-08
0.000889267265209
1.69879710519e-08
-9.79583282376e-08
0.000889274586162
9.95139466627e-10
-1.00998994313e-07
0.00088927584916
-1.03577890983e-07
0.000889273281138
7.00963498882e-09
-2.23837702156e-08
0.000885946593209
1.36183024941e-08
-2.34198678926e-08
0.000889012190198
2.00651864991e-08
-2.45552158751e-08
0.000889198950656
2.57768403088e-08
-2.68186163912e-08
0.00088923487588
3.0780027928e-08
-2.93670144289e-08
0.0008892688725
3.43104376884e-08
-3.39295867176e-08
0.000889242858894
3.66821134964e-08
-3.77191758672e-08
0.000889242099974
3.6979857644e-08
-4.41121211615e-08
0.000889267742016
3.5645897153e-08
-4.87596665607e-08
0.000889239802798
3.20058201622e-08
-5.61380734334e-08
0.000889238881113
2.62519689872e-08
-6.09572498546e-08
0.000889264175763
1.88201045459e-08
-6.7571110837e-08
0.00088923708764
9.09246914656e-09
-7.12614018369e-08
0.000889243801709
-7.30606109699e-10
-7.46442189031e-08
0.00088924679495
-7.52519594459e-08
0.000889243270221
6.57915144789e-09
-1.51096110052e-08
0.000885942866178
1.27868628117e-08
-1.58048536692e-08
0.000888994849621
1.88779699992e-08
-1.68419281676e-08
0.000889167700068
2.4285828415e-08
-1.82968167962e-08
0.000889198901077
2.89830813462e-08
-1.99606132994e-08
0.000889231443516
3.23219040861e-08
-2.28893886537e-08
0.000889204993344
3.45631995931e-08
-2.53139697291e-08
0.000889204332271
3.48395139702e-08
-2.93641930107e-08
0.000889229809062
3.37438844439e-08
-3.2317990383e-08
0.000889202192021
3.01931457518e-08
-3.68284443993e-08
0.000889200908356
2.52117204148e-08
-3.9897431072e-08
0.00088922673098
1.77405966039e-08
-4.36872797521e-08
0.000889198978423
9.19259302353e-09
-4.60757399207e-08
0.000889206428202
-9.34043350059e-10
-4.77601171443e-08
0.000889208531688
-4.82464296718e-08
0.000889205826692
6.18719071605e-09
-7.65805402578e-09
0.000885853244338
1.20087688964e-08
-7.97865111133e-09
0.000888870144977
1.74515185791e-08
-8.56914934229e-09
0.000888994985283
2.2217653163e-08
-9.25079633389e-09
0.000889012258621
2.63109635558e-08
-1.00848504747e-08
0.000889040677839
2.90657840633e-08
-1.15076977018e-08
0.000889013413979
3.07988717875e-08
-1.26721430817e-08
0.000889012696347
3.06888974345e-08
-1.46726004126e-08
0.000889038326352
2.93072097938e-08
-1.60527136944e-08
0.000889010801819
2.58749714951e-08
-1.83330201069e-08
0.000889009820346
2.10810627273e-08
-1.9710953178e-08
0.000889035667094
1.45763209549e-08
-2.17254179278e-08
0.00088900832181
6.96419994244e-09
-2.27178586083e-08
0.000889015696248
-1.39689773886e-09
-2.37659005382e-08
0.000889018174248
-2.381548686e-08
0.00088901525901
5.95484131606e-09
0.000882050180866
1.16520303806e-08
0.000885853196631
1.68284247155e-08
0.000885943010569
2.14071023166e-08
0.000885946586613
2.52913247026e-08
0.000885972895245
2.79034958547e-08
0.000885945338993
2.95535001713e-08
0.000885944763111
2.94082639101e-08
0.000885970140686
2.81253383562e-08
0.000885942948347
2.47731276799e-08
0.000885941740426
2.0286889875e-08
0.000885967791446
1.39266053701e-08
0.000885940235788
6.75379715586e-09
0.000885947913716
-1.46443173138e-09
0.00088595003597
0.00088594746518
2.69845284653e-08
-1.41946198925e-08
0.000885927407475
5.52547320953e-08
-1.5446218047e-08
0.000888993871171
8.51185579024e-08
-1.67834435732e-08
0.000889184553982
1.1845022369e-07
-2.00844063379e-08
0.000889218216773
1.58278185038e-07
-2.49287610574e-08
0.000889248003685
2.06182781727e-07
-3.37941279184e-08
0.000889210844357
2.71652793856e-07
-4.67934165487e-08
0.00088919991325
3.47721385148e-07
-6.66020900465e-08
0.000889199307577
4.8060905916e-07
-1.10164629092e-07
0.000889149094349
5.86697571571e-07
-1.43529807157e-07
0.000889080824629
9.85653983933e-07
-3.29213215163e-07
0.000889056001034
7.07080522923e-07
-1.40288398587e-07
0.000888858337071
-0
-6.83821416126e-07
0.00088848085214
0
-0
0
-0
0
2.56405514264e-08
-2.32987586207e-08
0.000885930701404
5.23398883068e-08
-2.52053463547e-08
0.000888997355321
8.04072222652e-08
-2.73104430287e-08
0.000889188044482
1.10953529722e-07
-3.22397247107e-08
0.000889222398804
1.46447408286e-07
-3.99113317234e-08
0.000889252237329
1.8733243959e-07
-5.25121666642e-08
0.000889217834699
2.37711264501e-07
-7.07962267686e-08
0.000889206460351
2.96595061201e-07
-9.72217455549e-08
0.000889216879707
3.62819545668e-07
-1.43741144197e-07
0.00088916374562
4.53631744555e-07
-1.97646457063e-07
0.000889143124691
4.71804861488e-07
-3.29425157756e-07
0.000889099586787
9.30103275e-07
-4.14509211588e-07
0.000889098269746
8.32280067078e-07
-8.88419074641e-07
0.000888800592399
4.59690209674e-08
-8.79586761066e-07
0.000888458318335
-9.56168580843e-07
0.000888413893344
2.44129522941e-08
-3.13581553357e-08
0.00088592881182
4.96597504781e-08
-3.37585343229e-08
0.000888995518442
7.58244525297e-08
-3.62077047353e-08
0.000889186512402
1.04317071074e-07
-4.27963181669e-08
0.00088922074471
1.3634914307e-07
-5.18062719723e-08
0.000889251663587
1.73037667855e-07
-6.83152272282e-08
0.000889216345673
2.16323136931e-07
-8.77537829277e-08
0.000889208885682
2.63226801677e-07
-1.20528215049e-07
0.000889214596947
3.19379019267e-07
-1.62047650984e-07
0.000889176292708
3.60953362336e-07
-2.22986124945e-07
0.000889134539991
3.98892505518e-07
-3.08585687626e-07
0.000889149101105
3.77124934884e-07
-4.14732930459e-07
0.000889049927906
1.5269737032e-07
-4.97644684272e-07
0.000889073257187
2.45215294908e-09
-1.01718189076e-06
0.000888922837101
-1.14782218402e-06
0.000888828182305
2.14718434129e-08
-3.69535014327e-08
0.000885922466771
4.35622606181e-08
-3.95927304315e-08
0.000888989406004
6.64240346006e-08
-4.23516246618e-08
0.000889180311168
9.03091761082e-08
-4.91492623305e-08
0.000889215763225
1.16518544047e-07
-5.89953435469e-08
0.000889246656552
1.44431740537e-07
-7.53471731134e-08
0.000889215376717
1.75586524865e-07
-9.5505611758e-08
0.000889206725812
2.08134062488e-07
-1.25975338793e-07
0.000889224312671
2.40352488161e-07
-1.64934324384e-07
0.000889179836897
2.74816997792e-07
-2.17893662289e-07
0.000889171637277
2.88278114639e-07
-2.89907190958e-07
0.000889161536445
3.15928412376e-07
-3.68977510669e-07
0.000889141291447
3.19616397837e-07
-4.70579909172e-07
0.000889080512904
9.9353302413e-08
-5.79964573166e-07
0.000889112015654
-6.72925287579e-07
0.000889034400476
1.98317575538e-08
-4.11824676596e-08
0.000885950118841
3.99559381044e-08
-4.38363855794e-08
0.000889017284775
6.03856434132e-08
-4.64974430985e-08
0.00088920860874
8.16999488438e-08
-5.35963830994e-08
0.000889243926887
1.04144063811e-07
-6.30993118559e-08
0.000889276001677
1.27779254413e-07
-7.97012977212e-08
0.000889243815981
1.52452891314e-07
-9.7773586924e-08
0.000889238807619
1.75977202158e-07
-1.27076632754e-07
0.000889252465747
1.9811088327e-07
-1.58152102526e-07
0.000889218780597
2.0973495233e-07
-2.05473788652e-07
0.000889197008083
2.11042341136e-07
-2.53565130002e-07
0.000889216725873
1.84431024768e-07
-3.2325004336e-07
0.000889158609356
1.31518287218e-07
-3.74262248597e-07
0.000889162771802
4.11729827562e-08
-4.84162437778e-07
0.000889130905856
-5.28311341884e-07
0.000889107078289
1.65216419997e-08
-4.26960009922e-08
0.000885925639679
3.3288947771e-08
-4.52739951656e-08
0.000888992913699
5.03336634056e-08
-4.78749151692e-08
0.000889184145407
6.74011223487e-08
-5.43673113314e-08
0.000889220542781
8.49597675724e-08
-6.33595766796e-08
0.000889252734717
1.02057921731e-07
-7.80901513597e-08
0.00088922369228
1.19116042064e-07
-9.45143753106e-08
0.000889218150653
1.34142067802e-07
-1.19170793304e-07
0.000889239448046
1.46156799194e-07
-1.45511673205e-07
0.000889202738327
1.53263262921e-07
-1.82376155007e-07
0.000889198157036
1.49563790217e-07
-2.20076808516e-07
0.000889208155328
1.35814293096e-07
-2.6616664247e-07
0.000889182582891
1.05009469158e-07
-3.0719708232e-07
0.000889166346946
3.04782327365e-08
-3.46933165576e-07
0.000889179473611
-3.72734655409e-07
0.000889154129363
1.49244964339e-08
-4.29032073366e-08
0.000885926825398
2.97990738434e-08
-4.52119642835e-08
0.000888994269763
4.46425607146e-08
-4.75220839831e-08
0.000889185863041
5.94373568703e-08
-5.35151744713e-08
0.000889222205584
7.41210825217e-08
-6.14944505138e-08
0.000889255252566
8.81450144474e-08
-7.47308703842e-08
0.000889225731128
1.01285026575e-07
-8.86128878119e-08
0.000889222464176
1.1164222556e-07
-1.09700578266e-07
0.000889241754487
1.19138128325e-07
-1.30427719974e-07
0.000889210584957
1.19020579296e-07
-1.59942265387e-07
0.000889199903519
1.12543711658e-07
-1.86961953349e-07
0.000889222004207
9.18203199115e-08
-2.21898291928e-07
0.000889182428469
6.15340595994e-08
-2.47958949148e-07
0.000889186876513
1.52851150651e-08
-2.78170696169e-07
0.000889179246067
-2.89311740845e-07
0.000889173531662
1.20519568389e-08
-4.08211322996e-08
0.000885955489716
2.41258393654e-08
-4.2895092895e-08
0.000889023135678
3.62048284067e-08
-4.49684247298e-08
0.000889214676643
4.78425885556e-08
-5.00955569258e-08
0.000889251760783
5.9078899213e-08
-5.7033155583e-08
0.000889285023099
6.90761217229e-08
-6.81253114273e-08
0.000889257449422
7.78618588933e-08
-7.97947148186e-08
0.000889254196255
8.40517961378e-08
-9.6807029563e-08
0.000889277569719
8.71456566948e-08
-1.1329155367e-07
0.000889245548029
8.57354764558e-08