/*--------------------------------*- C++ -*----------------------------------*\
| =========                 |                                                 |
| \\      /  F ield         | OpenFOAM: The Open Source CFD Toolbox           |
|  \\    /   O peration     | Version:  2406                                  |
|   \\  /    A nd           | Website:  www.openfoam.com                      |
|    \\/     M anipulation  |                                                 |
\*---------------------------------------------------------------------------*/
FoamFile
{
    version     2.0;
    format      ascii;
    arch        "LSB;label=32;scalar=64";
    class       surfaceScalarField;
    location    "0.01";
    object      phiHbyA;
}
// * * * * * * * * * * * * * * * * * * * * * * * * * * * * * * * * * * * * * //

dimensions      [0 3 -1 0 0 0 0];

oriented        oriented;

internalField   nonuniform List<scalar> 
85770
(
3.09499149531e-08
-1.56503118371e-08
0.000885961572194
6.43889883418e-08
-1.73443944106e-08
0.000889029251447
9.8950954175e-08
-1.86931974597e-08
0.000889221257748
1.4173199914e-07
-2.35401304396e-08
0.00088925782525
1.88501786822e-07
-2.78666993445e-08
0.000889292655163
2.6232972406e-07
-4.39172990467e-08
0.000889261992224
3.36054046624e-07
-5.07829082291e-08
0.000889263078955
4.99284973387e-07
-1.06725618205e-07
0.000889269566728
6.09953778754e-07
-1.09328446656e-07
0.000889246104119
1.40169920799e-06
-5.19595196184e-07
0.000889181118527
1.24708820169e-06
2.6036438834e-08
0.000889291275318
1.41400376462e-07
-7.27632894281e-07
0.000889273355574
8.72430960509e-09
-1.40965427185e-07
1.03801324338e-07
2.01132083262e-12
-6.58090334872e-09
4.36517748522e-10
-1.70091438955e-11
1.32691284996e-09
2.94318412282e-08
-2.59043905873e-08
0.000885964322669
6.06684598082e-08
-2.83762715021e-08
0.000889032131907
9.34797127406e-08
-3.07365653602e-08
0.000889224015885
1.30979868153e-07
-3.74595966002e-08
0.00088926097398
1.75161301045e-07
-4.57769409577e-08
0.000889295058606
2.2913178128e-07
-6.48536903586e-08
0.00088926643604
3.01628952345e-07
-8.35342955079e-08
0.000889263673245
3.78307755237e-07
-1.33585844297e-07
0.000889281663233
5.20374335434e-07
-1.79384447312e-07
0.000889239491115
4.0213323841e-07
-3.46323511803e-07
0.000889215865496
1.16514590812e-06
-4.72933866991e-07
0.00088919906158
1.17534605124e-06
-9.48786179346e-07
0.000889212283299
1.05564464526e-07
-1.06260118192e-06
0.000889229078052
6.59123825667e-09
-8.45665504961e-09
1.3181631827e-07
-1.25578097884e-07
8.4392229257e-08
2.79564096139e-08
-3.48835510888e-08
0.000885962134349
5.76452075504e-08
-3.80101178686e-08
0.00088902986545
8.77834070133e-08
-4.07171584446e-08
0.000889221886438
1.23829786746e-07
-4.95321867749e-08
0.000889258654397
1.6136457279e-07
-5.91561531378e-08
0.000889293509184
2.15837604025e-07
-8.34588361115e-08
0.000889263765004
2.66765483558e-07
-1.02732598998e-07
0.000889264762111
3.59637113388e-07
-1.61161756964e-07
0.000889277483029
4.18997820737e-07
-1.9955833403e-07
0.000889256245512
5.59914991129e-07
-3.42096111258e-07
0.000889208468529
5.13372165929e-07
-4.24886294366e-07
0.000889261372138
6.61428344458e-07
-6.03863031451e-07
0.000889137998003
5.90701469399e-07
-1.17164874132e-06
0.000889255446027
1.44656536369e-07
-7.15731024417e-07
0.000889271890576
-1.04314582799e-06
0.000889229113925
2.44496610913e-08
-4.11833651096e-08
0.000885954543385
4.98734665563e-08
-4.45222912523e-08
0.00088902244669
7.63885549759e-08
-4.76843898683e-08
0.000889214319631
1.04499949755e-07
-5.65215698648e-08
0.00088925173355
1.36604705743e-07
-6.73721516284e-08
0.000889285799485
1.69922125722e-07
-9.00802694864e-08
0.000889258780131
2.12552176463e-07
-1.11439374178e-07
0.000889256194838
2.46457742055e-07
-1.60279938051e-07
0.000889280208143
3.01042408564e-07
-1.98407113883e-07
0.000889244909754
3.00133206407e-07
-3.04906798713e-07
0.000889244984898
3.36486744955e-07
-3.58704098467e-07
0.000889239622135
2.47375464864e-07
-5.49926810081e-07
0.00088924127053
-1.29829575433e-07
-5.46440883752e-07
0.000889174228214
-1.60237777962e-07
-9.26237111941e-07
0.000889329489168
-1.23799822866e-06
0.000889253485722
2.26035310669e-08
-4.5810587298e-08
0.000885981855851
4.5958445846e-08
-4.91218886154e-08
0.000889049765102
6.93487630093e-08
-5.22245607251e-08
0.000889241777199
9.54215754664e-08
-6.10476858331e-08
0.000889278996929
1.21645414901e-07
-7.1784107068e-08
0.000889313743284
1.5409068473e-07
-9.32193892221e-08
0.000889285705065
1.83847182915e-07
-1.13663153511e-07
0.000889285791801
2.23686183088e-07
-1.54279298305e-07
0.000889305342789
2.51899311034e-07
-1.90725272793e-07
0.000889280635337
2.85468484806e-07
-2.59017101324e-07
0.000889263357782
2.96920145033e-07
-3.25189766169e-07
0.000889298389717
2.85505348689e-07
-3.99084209345e-07
0.000889233490625
3.19884429715e-07
-5.15909241787e-07
0.00088926513024
1.3659441938e-07
-5.30427548028e-07
0.000889213430711
-6.64365953542e-07
0.000889210025272
1.86553507525e-08
-4.75525624429e-08
0.000885955845604
3.77250766699e-08
-5.0725235395e-08
0.000889023845718
5.72731775191e-08
-5.37718705564e-08
0.000889215781307
7.68973999032e-08
-6.18113286398e-08
0.000889253507085
9.78062459562e-08
-7.1854419079e-08
0.000889287840981
1.17424543767e-07
-9.07395226864e-08
0.000889261580891
1.39268505517e-07
-1.08761984944e-07
0.000889259935767
1.5458612012e-07
-1.43040225753e-07
0.000889285241955
1.72295859205e-07
-1.70933702582e-07
0.000889254517574
1.71111359115e-07
-2.28479399817e-07
0.000889255000853
1.65705149015e-07
-2.64911910705e-07
0.000889272461644
1.35764373505e-07
-3.46637869441e-07
0.000889253765102
7.39112557739e-08
-3.81069661838e-07
0.000889244782376
1.77913581961e-08
-4.69819813411e-07
0.000889265730831
-5.29830868748e-07
0.000889248575213
1.69161582076e-08
-4.76664000703e-08
0.000885956722049
3.39724215971e-08
-5.0467195025e-08
0.000889024641632
5.08622539841e-08
-5.32278944476e-08
0.000889216650678
6.84403992391e-08
-6.03187162969e-08
0.000889254258813
8.54517197069e-08
-6.94477674755e-08
0.000889288992849
1.03515261093e-07
-8.52824401823e-08
0.000889262192193
1.19345670293e-07
-1.01418865417e-07
0.000889261848872
1.35328655998e-07
-1.27268217925e-07
0.000889285070328
1.45776441117e-07
-1.52481926997e-07
0.000889258316892
1.51263419354e-07
-1.88285674222e-07
0.00088925191013
1.48151834964e-07
-2.24949951729e-07
0.000889280231605
1.27050435055e-07
-2.60118580486e-07
0.000889242955048
1.01353239805e-07
-3.06378940084e-07
0.000889254888412
3.2419736187e-08
-3.16841893763e-07
0.000889244935953
-3.53096083723e-07
0.000889244419335
1.35324721554e-08
-4.54218980606e-08
0.000885983923285
2.71766585032e-08
-4.79239196757e-08
0.000889052074417
4.09211677244e-08
-5.03859977165e-08
0.000889244082692
5.41660632225e-08
-5.64950959587e-08
0.000889281996981
6.72616868527e-08
-6.4287479415e-08
0.000889316592289
7.8598573945e-08
-7.7699393954e-08
0.000889290704093
8.93513579794e-08
-9.0753863731e-08
0.000889289753058
9.58040879838e-08
-1.1227318829e-07
0.000889315404023
1.00361253845e-07
-1.30625666106e-07
0.000889286730073
9.67216486848e-08
-1.60934532414e-07
0.000889286272681
8.77332736039e-08
-1.82935850552e-07
0.000889309739293
6.93864128113e-08
-2.17908870029e-07
0.000889284546034
3.98244112365e-08
-2.38290392323e-07
0.000889288015366
7.99799204758e-09
-2.6343964174e-07
0.000889294379445
-2.76055526506e-07
0.000889287814675
1.21204649749e-08
-4.18151833145e-08
0.00088595823094
2.41262503268e-08
-4.38667493998e-08
0.000889026213633
3.59153793625e-08
-4.59807143529e-08
0.000889218212968
4.75071844125e-08
-5.09826097589e-08
0.000889256057078
5.824104139e-08
-5.76130146003e-08
0.000889290845221
6.82030722416e-08
-6.81854367329e-08
0.00088926473695
7.62249663645e-08
-7.91678614239e-08
0.000889264337503
8.22163464043e-08
-9.48606649749e-08
0.000889289221738
8.47107811968e-08
-1.10278345746e-07
0.000889261925939
8.25191994633e-08
-1.29616390222e-07
0.000889259275932
7.54085009068e-08
-1.48738409452e-07
0.000889285760323
5.97575655254e-08
-1.66244818514e-07
0.000889255647801
3.89794362549e-08
-1.85348597285e-07
0.000889264119766
8.14559390794e-09
-1.91345614071e-07
0.000889263544626
-2.01444163995e-07
0.000889261723119
9.67621863987e-09
-3.65869276047e-08
0.000885958793284
1.93111156889e-08
-3.8280143756e-08
0.000889026840265
2.88950232434e-08
-4.00551234235e-08
0.000889218707516
3.7839285616e-08
-4.41337240214e-08
0.000889256633917
4.60986440963e-08
-4.94388960104e-08
0.000889291373714
5.27268780466e-08
-5.79954120528e-08
0.000889265676362
5.8036107687e-08
-6.6436796097e-08
0.000889265117623
6.04513644473e-08
-7.90635406872e-08
0.000889290949202
6.06085874554e-08
-9.00971027548e-08
0.000889263147161
5.651499861e-08
-1.05902100147e-07
0.000889262435572
4.88413446296e-08
-1.18043547853e-07
0.000889287737624
3.68385322563e-08
-1.3375259674e-07
0.000889260925744
2.02774921625e-08
-1.43696396485e-07
0.000889267463977
2.16221815735e-09
-1.52674777916e-07
0.000889270727903
-1.55586033119e-07
0.000889266998784
8.65796856346e-09
-3.03500976598e-08
0.000885986119115
1.71268501023e-08
-3.16132118695e-08
0.000889053913718
2.54334270127e-08
-3.30922158794e-08
0.000889244869793
3.32424302458e-08
-3.61991023782e-08
0.000889282381885
4.01479380594e-08
-4.03831609435e-08
0.000889317083315
4.58378556303e-08
-4.67488634297e-08
0.000889291278843
4.98895408463e-08
-5.33478029718e-08
0.000889290933239
5.18794744918e-08
-6.22998282374e-08
0.000889316525926
5.14579935046e-08
-7.08884281314e-08
0.000889289190198
4.78882963546e-08
-8.12099562294e-08
0.000889287855124
4.13601049534e-08
-9.07516443926e-08
0.000889314025144
3.08821423707e-08
-9.96594050481e-08
0.000889285972578
1.76296198451e-08
-1.07737532444e-07
0.00088929377942
1.45784197867e-09
-1.11249700398e-07
0.000889295397461
-1.14095244941e-07
0.000889292959919
7.21051090993e-09
-2.32147474683e-08
0.000885959789064
1.42948705691e-08
-2.40906081628e-08
0.000889025424549
2.13362896834e-08
-2.5311876628e-08
0.000889212213012
2.7736536614e-08
-2.75934046421e-08
0.000889248260505
3.33107690848e-08
-3.06309841784e-08
0.000889282479103
3.74782079877e-08
-3.53345294951e-08
0.000889256715669
4.02748968633e-08
-4.00083336795e-08
0.000889256325855
4.09962625952e-08
-4.66624073926e-08
0.000889282253675
3.9824540847e-08
-5.25017499155e-08
0.00088925481991
3.60912150638e-08
-6.02956044332e-08
0.000889254092369
3.00720667712e-08
-6.63564801978e-08
0.000889280010364
2.17038987466e-08
-7.34744619103e-08
0.000889252858857
1.12017527883e-08
-7.8005008929e-08
0.000889260236258
-2.76738300475e-10
-8.16969987856e-08
0.000889262805641
-8.24391123673e-08
0.000889259820388
6.66698201456e-09
-1.55345487131e-08
0.000885956085604
1.32081523646e-08
-1.608494689e-08
0.000889008040775
1.96859232559e-08
-1.71036139122e-08
0.000889180879778
2.55595316755e-08
-1.8544014037e-08
0.000889212202853
3.05587217436e-08
-2.05372728028e-08
0.000889244925682
3.42962348346e-08
-2.35487783894e-08
0.000889218743044
3.66236801717e-08
-2.65915627137e-08
0.000889218360606
3.71519696394e-08
-3.08042161043e-08
0.000889244203114
3.58499077134e-08
-3.45923007004e-08
0.000889216923741
3.23344847608e-08
-3.93658937909e-08
0.000889216036232
2.68306680425e-08
-4.3301466432e-08
0.000889242198041
1.91544125741e-08
-4.74150346924e-08
0.000889214758754
9.87881949721e-09
-5.0400071013e-08
0.000889222455565
-6.02699360529e-10
-5.2279793739e-08
0.000889224655096
-5.2904591336e-08
0.000889221986895
6.35352644391e-09
-7.81087891574e-09
0.000885866253796
1.25604466804e-08
-8.04960697246e-09
0.000888883164229
1.8495512639e-08
-8.61534146362e-09
0.000889008075969
2.38198771837e-08
-9.29041441438e-09
0.000889025443644
2.83430222103e-08
-1.02828518763e-08
0.000889054025529
3.15844337636e-08
-1.17712189127e-08
0.000889026925501
3.35539115051e-08
-1.32422738824e-08
0.000889026455606
3.37309563435e-08
-1.53618907642e-08
0.000889052287765
3.2291264279e-08
-1.71443410384e-08
0.000889025077298
2.87975406064e-08
-1.95960390477e-08
0.000889024270139
2.35787958162e-08
-2.13699362311e-08
0.000889050459502
1.65654035869e-08
-2.35788849735e-08
0.000889023172453
8.19437554648e-09
-2.48149243884e-08
0.000889030848154
-1.00971249249e-09
-2.59937982464e-08
0.000889033205077
-2.60632283913e-08
0.000889030455831
6.22376990726e-09
0.000882063162344
1.23005595687e-08
0.000885866240386
1.79192928235e-08
0.000885956126592
2.30118930311e-08
0.000885959783564
2.72919026686e-08
0.000885986237369
3.03523057222e-08
0.00088595882702
3.21849029916e-08
0.000885958462492
3.22771970533e-08
0.00088598403847
3.08602884697e-08
0.000885957100644
2.74227064877e-08
0.000885956095002
2.24564556213e-08
0.000885982403898
1.56552454786e-08
0.000885954977899
7.74732447544e-09
0.00088596285033
-1.1436239455e-09
0.000885964962275
0.000885962436208
2.87064142801e-08
-1.64779734786e-08
0.000885943069101
5.98939329767e-08
-1.80899130649e-08
0.000889009945968
9.16658913498e-08
-1.89641547796e-08
0.000889201298995
1.31331778967e-07
-2.43290022909e-08
0.000889235802582
1.73372071552e-07
-2.79714311936e-08
0.000889268137651
2.40833871845e-07
-4.61496800239e-08
0.000889231936369
3.08162061331e-07
-5.12557137299e-08
0.000889227836803
4.56886871418e-07
-1.14559458032e-07
0.000889222601465
5.72552711003e-07
-1.08737120963e-07
0.000889193158278
1.03954833146e-06
-3.79885342891e-07
0.000889081018566
9.45150706665e-07
-8.45021969639e-09
0.000889193942064
1.91811026233e-07
-4.46081654368e-07
0.000888583785451
6.71412804842e-09
-1.2980549915e-07
0.000444608351417
-3.530982651e-09
-8.12480796047e-09
5.8527627925e-08
-1.08629511879e-08
6.16057337696e-08
2.69252957122e-08
-2.57126374845e-08
0.000885946145643
5.56469783832e-08
-2.82699777777e-08
0.00088901321985
8.54031140078e-08
-3.0035475747e-08
0.000889204495761
1.18918488249e-07
-3.69348410642e-08
0.00088923975625
1.56949867975e-07
-4.37399907833e-08
0.00088927163337
2.00445837968e-07
-6.30361441509e-08
0.000889239003237
2.58604141542e-07
-7.81895735038e-08
0.000889231704005
3.02427267383e-07
-1.2619261911e-07
0.000889244059547
4.06555463322e-07
-1.6286521594e-07
0.000889195457475
3.21687312205e-07
-2.89269520375e-07
0.000889177661719
8.12842666354e-07
-3.76194803601e-07
0.000889118616541
7.93610706029e-07
-6.18973840822e-07
0.000889274893546
5.63585968375e-08
-7.86829526082e-07
0.000888507816976
-1.46072017422e-09
-5.30859711599e-08
0.000444640804059
-1.23293378367e-07
0.000444594822391
2.61317316103e-08
-3.42104795297e-08
0.00088594407047
5.39300316001e-08
-3.75676490213e-08
0.000889011135395
8.16082569867e-08
-3.94507666524e-08
0.000889202687485
1.1514586139e-07
-4.87183325371e-08
0.00088923767827
1.48259897194e-07
-5.59928191949e-08
0.000889270672548
1.97246524346e-07
-8.12020174859e-08
0.000889236383965
2.39282469417e-07
-9.43436661421e-08
0.000889233982762
3.154490245e-07
-1.51701636438e-07
0.000889237773906
3.56732271959e-07
-1.74411311797e-07
0.000889212558367
4.50998503799e-07
-2.92418942947e-07
0.000889151632329
4.34184286274e-07
-3.46692887248e-07
0.000889205063696
4.90104071862e-07
-4.71439508901e-07
0.000889032394617
4.59621428685e-07
-8.40798463169e-07
0.000889233717926
1.20599732184e-07
-6.0749855389e-07
0.000888643702532
-8.672959417e-07
0.00088856517357
2.20855635903e-08
-3.95907333867e-08
0.000885937236781
4.51051439417e-08
-4.32690526256e-08
0.000889004568148
6.89578213746e-08
-4.57037307596e-08
0.000889195929923
9.34488004123e-08
-5.46333165425e-08
0.000889232215212
1.20915374636e-07
-6.30390119642e-08
0.000889264559768
1.4651732812e-07
-8.55173211632e-08
0.000889235145788
1.80608822937e-07
-1.01204157779e-07
0.000889229007572
1.98403489523e-07
-1.46926514686e-07
0.000889250110542
2.38870479485e-07
-1.73214774933e-07
0.000889208165202
2.18837612823e-07
-2.60773190874e-07
0.000889209115138
2.36366308068e-07
-2.95712526773e-07
0.000889193301552
1.64036886438e-07
-4.35395620563e-07
0.000889210162672
-1.31259123727e-07
-4.28651186616e-07
0.000889112486004
-1.34730743972e-07
-6.97443822822e-07
0.000889320596799
-1.00687004552e-06
0.000889191166091
2.13387972841e-08
-4.4052052277e-08
0.00088596462212
4.32882845699e-08
-4.77201740605e-08
0.000889032081725
6.48825746011e-08
-5.005794764e-08
0.00088922380168
8.925072339e-08
-5.90610711284e-08
0.000889259772168
1.12690986378e-07
-6.7347983647e-08
0.000889293236624
1.42357546069e-07
-8.88458543634e-08
0.000889262184398
1.67705567017e-07
-1.03790121757e-07
0.00088926007078
2.02291424332e-07
-1.42729760643e-07
0.000889274223582
2.24831998645e-07
-1.68437217258e-07
0.000889246454416
2.5219771101e-07
-2.26869912447e-07
0.000889220958345
2.62215641682e-07
-2.75788993048e-07
0.000889252906411
2.47398977945e-07
-3.25353419586e-07
0.000889178810038
2.80939756494e-07
-4.27669930175e-07
0.00088920458525
1.24783361574e-07
-4.12395406431e-07
0.000889138996909
-5.55897474758e-07
0.00088911719675
1.68775421861e-08
-4.52793237537e-08
0.000885939528184
3.40828252365e-08
-4.88699591686e-08
0.000889007133737
5.16299295057e-08
-5.13116913811e-08
0.000889198703659
6.86524726148e-08
-5.93783909461e-08
0.000889235735674
8.65982599784e-08
-6.72012792596e-08
0.000889268909397
1.01733311139e-07
-8.58651449891e-08
0.000889241261928
1.19238950632e-07
-9.9207704291e-08
0.000889237327628
1.27355599671e-07
-1.32076550657e-07
0.000889261111186
1.39922335092e-07
-1.51569609898e-07
0.000889226261886
1.31635571821e-07
-2.03253979035e-07
0.000889226724773
1.24680806207e-07
-2.27653514893e-07
0.000889236895356
9.84848576026e-08
-2.95849945192e-07
0.000889223464236
4.44747615382e-08
-3.20180470691e-07
0.000889201605153
1.06398650471e-08
-3.91049121657e-07
0.000889238670486
-4.5921063168e-07
0.000889204568088
1.61710795052e-08
-4.5498812916e-08
0.000885940434581
3.22790463869e-08
-4.86651552189e-08
0.000889008111291
4.79668070385e-08
-5.08835636289e-08
0.000889199964872
6.44308865347e-08
-5.79823079141e-08
0.000889236802856
7.99073180797e-08
-6.52348854838e-08
0.000889270707325
9.66283409952e-08
-8.08207524975e-08
0.000889242129545
1.10653862945e-07
-9.32241225977e-08
0.000889240409322
1.2498226987e-07
-1.17837320457e-07
0.000889260720563
1.34018420442e-07
-1.36922996284e-07
0.000889232065028
1.38326810327e-07
-1.68352004654e-07
0.000889221590333
1.36340403642e-07
-1.97279721645e-07
0.000889247554065
1.16532585128e-07
-2.22967966569e-07
0.000889205719115
9.62884135194e-08
-2.64389526774e-07
0.000889214877895
3.3283175431e-08
-2.64287547233e-07
0.000889201889129
-3.05375567642e-07
0.000889197846824
1.24334035512e-08
-4.31849598274e-08
0.000885968493679
2.48200149568e-08
-4.60600118896e-08
0.000889036405092
3.71748658898e-08
-4.811237064e-08
0.000889228192649
4.87335472603e-08
-5.42139573789e-08
0.000889265704444
6.00677590034e-08
-6.04315363924e-08
0.000889299594438
6.90554579501e-08
-7.36739873332e-08
0.000889272915509
7.77356907325e-08
-8.36900264424e-08
0.00088927065674
8.12402129679e-08
-1.04639783783e-07
0.00088929544941
8.40177001071e-08
-1.18148780853e-07
0.000889264615238
7.83301610007e-08
-1.46730116787e-07
0.000889263938348
6.95545928946e-08
-1.6258337367e-07
0.000889284019433
5.37501018095e-08
-1.94230926488e-07
0.000889260487697
2.84676112677e-08
-2.09836298792e-07
0.000889259139
5.28990756038e-09
-2.31825940706e-07
0.000889270190518
-2.45633480023e-07
0.00088925822182
1.17642789311e-08
-3.98760731172e-08
0.000885942797358
2.31683507718e-08
-4.22282768781e-08
0.000889010689413
3.41530826444e-08
-4.40116258456e-08
0.000889202636548
4.49915145992e-08
-4.89632149625e-08
0.000889240050187
5.48679498418e-08
-5.43679287541e-08
0.000889274335997
6.41289722498e-08
-6.46662514378e-08
0.000889247260532
7.14193588398e-08
-7.34043694456e-08
0.000889246045456
7.68664386318e-08
-8.8342151368e-08
0.000889269461328
7.91259827464e-08
-1.00475489096e-07
0.000889241080495
7.68870212675e-08
-1.17928111366e-07
0.000889236574613
7.06485853774e-08
-1.33396798622e-07
0.00088926177932
5.59464972247e-08
-1.47524019697e-07
0.000889229854673
3.71821724772e-08
-1.64507818508e-07
0.000889237033913
8.25060023699e-09
-1.67142049958e-07
0.000889235588624
-1.78549363881e-07
0.000889232992316
9.13071305272e-09
-3.49094363937e-08
0.000885944035205
1.79942023829e-08
-3.68696390302e-08
0.000889011965076
2.6641248924e-08
-3.84026924803e-08
0.000889203734252
3.45260242918e-08
-4.24641598963e-08
0.000889241439927
4.17564209856e-08
-4.6809815841e-08
0.000889275779341
4.7197308717e-08
-5.52346631565e-08
0.000889249643957
5.15423818613e-08
-6.19311249327e-08
0.000889248383764
5.28254476211e-08
-7.42901839275e-08
0.000889273727312
5.24349239823e-08
-8.27840879061e-08
0.000889244875936
4.7933607279e-08
-9.8042026735e-08
0.00088924391638
4.07649619191e-08
-1.07242455857e-07
0.000889267767096
3.01992973537e-08
-1.22173575988e-07
0.000889241380408
1.56994717023e-08
-1.2986991143e-07
0.000889246130864
9.80854970562e-10
-1.38443707132e-07
0.0008892507928
-1.40975377309e-07
0.00088924532487
8.53489175301e-09
-2.90769532483e-08
0.00088597133931
1.66171134079e-08
-3.05457684949e-08
0.000889039136506
2.43518438886e-08
-3.18640654334e-08
0.000889230111427
3.16166476551e-08
-3.49315203682e-08
0.000889267405692
3.79930987986e-08
-3.84145964452e-08
0.00088930181714
4.32663156404e-08
-4.45802699324e-08
0.000889275520078
4.69820352592e-08
-4.99352294292e-08
0.000889274713696
4.87700584388e-08
-5.84665917649e-08
0.000889299602792
4.83643806564e-08
-6.5355136581e-08
0.0008892716804
4.49351585118e-08
-7.48749571479e-08
0.000889269528556
3.89175469241e-08
-8.2639639044e-08
0.000889295058197
2.90134591287e-08
-9.03769619757e-08
0.000889266296342
1.66179870175e-08
-9.73494203236e-08
0.000889273551142
1.28836734783e-09
-9.98877097795e-08
0.000889274911891
-1.02862839775e-07
0.000889272270909
7.00439474891e-09
-2.23625217968e-08
0.000885945450514
1.36228745352e-08
-2.34000456259e-08
0.000889011055524
2.00238838923e-08
-2.45368123445e-08
0.000889197825058
2.57512980537e-08
-2.68167379149e-08
0.000889233755882
3.0712579272e-08
-2.93584433912e-08
0.000889267748294
3.42752609258e-08
-3.39588655503e-08
0.000889241737598
3.66208370957e-08
-3.77265242283e-08
0.000889240972489
3.69281211636e-08
-4.41979420401e-08
0.000889266612442
3.56303660431e-08
-4.87906547734e-08
0.000889238669656
3.19273548773e-08
-5.63112912971e-08
0.000889237734095
2.63143752518e-08
-6.10213055813e-08
0.000889263034422
1.87153472594e-08
-6.78494894337e-08
0.000889235916079
9.22483985215e-09
-7.13677597315e-08
0.000889242650134
-8.33593304076e-10
-7.49994508769e-08
0.000889245603883
-7.53935819896e-08
0.000889242109926
6.57259964255e-09
-1.50509817134e-08
0.000885941727683
1.27901847441e-08
-1.57505931453e-08
0.000888993718942
1.88200579751e-08
-1.68047432496e-08
0.000889166576799
2.42669263011e-08
-1.82515514867e-08
0.000889197787234
2.88775748262e-08
-1.99185274906e-08
0.000889230326098
3.23085992705e-08
-2.2819777999e-08
0.000889203889225
3.44232115048e-08
-2.52549901652e-08
0.000889203220454
3.48425476932e-08
-2.92568837023e-08
0.000889228716682
3.35859137074e-08
-3.22339022653e-08
0.000889201087549
3.02237845078e-08
-3.66721635287e-08
0.000889199829428
2.50596964767e-08
-3.97814942925e-08
0.000889225635375
1.78078142831e-08
-4.34803970076e-08
0.000889197912646
9.07611528255e-09
-4.59269079117e-08
0.000889205341796
-8.23417386012e-10
-4.75209101866e-08
0.000889207474525
-4.80799257579e-08
0.000889204745417
6.17650243968e-09
-7.65050097527e-09
0.000885852099178
1.19952238187e-08
-7.9779929323e-09
0.000888869005201
1.74012687635e-08
-8.57003648244e-09
0.000888993847471
2.21953793089e-08
-9.25529624117e-09
0.000889011126056
2.62321033182e-08
-1.00888646026e-08
0.000889039542262
2.90416691808e-08
-1.15185224121e-08
0.000889012285754
3.07060981198e-08
-1.26814987672e-08
0.000889011562966
3.06686307827e-08
-1.46939493762e-08
0.00088903720147
2.92202614061e-08
-1.6069723557e-08
0.000889009670363
2.58653632703e-08
-1.83689066007e-08
0.000889008697039
2.101896254e-08
-1.97375192069e-08
0.000889034536865
1.45858536129e-08
-2.17772070117e-08
0.000889007198194
6.93740848991e-09
-2.27540206969e-08
0.000889014566388
-1.3582578759e-09
-2.38287534977e-08
0.000889017049707
-2.38571553477e-08
0.000889014128687
5.93723990693e-09
0.000882049036154
1.16368778321e-08
0.000885852054242
1.67742678153e-08
0.000885941867328
2.13851861855e-08
0.000885945448945
2.52051745774e-08
0.000885971754523
2.788071388e-08
0.000885944207257
2.94481584926e-08
0.000885943626055
2.93922303821e-08
0.000885969015133
2.80189516178e-08
0.000885941815408
2.47728120012e-08
0.000885940620488
2.01991308689e-08
0.00088596666249
1.39518665793e-08
0.000885939120061
6.70008171581e-09
0.000885946787898
-1.4043211447e-09
0.000885948922475
0.000885946340427
2.69716439074e-08
-1.41463297915e-08
0.000885926804038
5.52312818645e-08
-1.53940430116e-08
0.000888993266061
8.48941780818e-08
-1.67312553625e-08
0.00088918397906
1.18245381171e-07
-1.99874072058e-08
0.00088921762136
1.57834610805e-07
-2.48381497973e-08
0.000889247515481
2.05783758974e-07
-3.35836350845e-08
0.000889210263643
2.71083925396e-07
-4.65669759538e-08
0.000889199616027
3.46548102887e-07
-6.62055742865e-08
0.000889198685207
4.809027856e-07
-1.0921639913e-07
0.000889149326904
5.81247076194e-07
-1.43477057359e-07
0.000889079725241
9.91708510859e-07
-3.23373632406e-07
0.000889058228001
6.84566673009e-07
-1.45125190034e-07
0.000888854943772
-2.19821800506e-08
-6.54840132065e-07
0.000888489446462
-1.07764434961e-08
-9.70683424474e-08
0.000444627382963
-1.15821056614e-07
0.000444616783528
2.56318453629e-08
-2.32515216765e-08
0.000885930090575
5.2316952078e-08
-2.51629882846e-08
0.000888996742236
8.02278352714e-08
-2.72609512075e-08
0.000889187461249
1.10742317531e-07
-3.22312614364e-08
0.000889221793136
1.46123718667e-07
-3.98371622886e-08
0.000889251732159
1.86949361481e-07
-5.256824341e-08
0.000889217249519
2.3731245161e-07
-7.06815437671e-08
0.000889206102866
2.95973499204e-07
-9.73888205654e-08
0.000889216350075
3.62217654222e-07
-1.43716983982e-07
0.000889163634658
4.53966026919e-07
-1.97593335345e-07
0.000889142878695
4.67176169612e-07
-3.31108834518e-07
0.000889099492637
9.41367858602e-07
-4.09984348075e-07
0.000889100076331
8.01828536454e-07
-9.00176925156e-07
0.000888798213377
4.66703166075e-08
-8.51827270388e-07
0.00088846945827
-9.33303998384e-07
0.000888423879262
2.43996290448e-08
-3.12521757975e-08
0.00088592820019
4.96443889963e-08
-3.36453996492e-08
0.000888994904925
7.56041071894e-08
-3.60982357826e-08
0.000889185925124
1.04171573266e-07
-4.25977955886e-08
0.000889220132569
1.35895209962e-07
-5.16413479431e-08
0.000889251141338
1.72825353968e-07
-6.79216368545e-08
0.000889215727252
2.15642578697e-07
-8.74605217968e-08
0.000889208490543
2.62796437577e-07
-1.198118157e-07
0.000889213910715
3.18806139119e-07
-1.61389690909e-07
0.000889176168434
3.59551538413e-07
-2.22091516901e-07
0.000889133512875
4.00472555715e-07
-3.06646642833e-07
0.000889149589804
3.72108610445e-07
-4.15803156611e-07
0.000889047553765
1.61786322092e-07
-4.92150616681e-07
0.000889074788619
-1.72728195046e-09
-1.02710986134e-06
0.000888917031993
-1.15398315887e-06
0.000888824869426
2.14663143719e-08
-3.68903435374e-08
0.000885921855703
4.35443019482e-08
-3.95358520014e-08
0.000888988794758
6.62931201495e-08
-4.22866815347e-08
0.000889179724246
9.01301182969e-08
-4.91363529978e-08
0.000889215169677
1.16293286936e-07
-5.89017784289e-08
0.000889246133352
1.44119112183e-07
-7.54052818534e-08
0.00088921482796
1.75329089048e-07
-9.53527859403e-08
0.000889206313115
2.07645385461e-07
-1.26148353298e-07
0.000889223877965
2.40016263443e-07
-1.64711256936e-07
0.000889179596342
2.7445979646e-07
-2.18042721228e-07
0.000889171537404
2.86848657121e-07
-2.89844244838e-07
0.000889161477416
3.17475772183e-07
-3.67808786918e-07
0.000889142246491
3.13283459558e-07
-4.71410634581e-07
0.000889080497733
9.89612647741e-08
-5.73198068344e-07
0.000889115662657
-6.66451067482e-07
0.000889037442915
1.98202983047e-08
-4.10456926869e-08
0.000885949497071
3.99466285974e-08
-4.36922067637e-08
0.000889016662188
6.02027835077e-08
-4.63573814502e-08
0.000889208005952
8.1601553274e-08
-5.33646266414e-08
0.000889243304977
1.03767124446e-07
-6.29033326853e-08
0.000889275439101
1.2767755721e-07
-7.92811174827e-08
0.000889243187694
1.51869592035e-07
-9.74786378843e-08
0.000889238311094
1.75884567941e-07
-1.26356897983e-07
0.000889251799106
1.97402470036e-07
-1.57694311783e-07
0.000889218386108
2.09589695115e-07
-2.04431654141e-07
0.000889196192605
2.10718662198e-07
-2.52825987375e-07
0.000889216460843
1.83978595657e-07
-3.22406877484e-07
0.000889157357987
1.3278340708e-07
-3.7326908895e-07
0.000889162484757
4.04894455835e-08
-4.85071793708e-07
0.000889128777058
-5.28926919741e-07
0.000889105859976
1.6518404426e-08
-4.26272274482e-08
0.000885925023656
3.32768851448e-08
-4.52107448161e-08
0.000888992298999
5.02429577462e-08
-4.78060440725e-08
0.000889183549255
6.72669958202e-08
-5.43417295241e-08
0.000889219947333
8.48070498534e-08
-6.32693927326e-08
0.000889252185139
1.01831002329e-07
-7.81174028236e-08
0.000889223138582
1.18957522389e-07
-9.43770144355e-08
0.000889217678434
1.33787566206e-07
-1.19281598465e-07
0.000889238985582
1.46032754924e-07
-1.45292553287e-07
0.000889202385142
1.52815136068e-07
-1.82544969102e-07
0.000889197893593
1.49344202547e-07
-2.19758033345e-07
0.000889207964217
1.35511743138e-07
-2.66093820404e-07
0.000889182732084
1.04372007512e-07
-3.06741361975e-07
0.000889166374366
3.00884348352e-08
-3.45977104391e-07
0.000889180236141
-3.71295697409e-07
0.000889154683075
1.49161192082e-08
-4.27636564515e-08
0.000885926194238
2.97932657991e-08
-4.50667301086e-08
0.000888993639148
4.45086806238e-08
-4.73790785809e-08
0.000889185246688
5.93678421295e-08
-5.33008540563e-08
0.000889221577521
7.38509341969e-08
-6.1301881155e-08
0.000889254659038
8.80827060896e-08
-7.43740049556e-08
0.000889225100477
1.00878343565e-07
-8.83401743139e-08
0.000889221902686
1.11617632112e-07
-1.09129150738e-07
0.00088924110907
1.18626138027e-07
-1.30048175644e-07
0.000889210061214
1.19060006913e-07
-1.59114656857e-07
0.000889199206395
1.12078172759e-07
-1.86456708162e-07
0.00088922150593
9.19006775652e-08
-2.20924395802e-07
0.000889181607744
6.13970147265e-08
-2.47358401327e-07
0.000889186340723