/*--------------------------------*- C++ -*----------------------------------*\
| =========                 |                                                 |
| \\      /  F ield         | OpenFOAM: The Open Source CFD Toolbox           |
|  \\    /   O peration     | Version:  2406                                  |
|   \\  /    A nd           | Website:  www.openfoam.com                      |
|    \\/     M anipulation  |                                                 |
\*---------------------------------------------------------------------------*/
FoamFile
{
    version     2.0;
    format      ascii;
    arch        "LSB;label=32;scalar=64";
    class       volVectorField;
    location    "0.01";
    object      U;
}
// * * * * * * * * * * * * * * * * * * * * * * * * * * * * * * * * * * * * * //

dimensions      [0 1 -1 0 0 0 0];

internalField   nonuniform List<vector> 
29768
(
(9.67268503796e-06 -6.30855502307e-06 0.797386890696)
(2.41110940397e-05 -6.9390154796e-06 0.800123685996)
(4.62469417498e-05 -7.05966355542e-06 0.800320284263)
(6.19342601993e-05 -9.73822135168e-06 0.800354247294)
(9.31079093838e-05 -1.03062406621e-05 0.800362797753)
(0.000113043667196 -2.00985206408e-05 0.800362857666)
(0.000174008950134 -1.78249002189e-05 0.800365782258)
(0.000193507708616 -5.51370492092e-05 0.800357800681)
(0.000353501718884 -3.49085560183e-05 0.800357894876)
(0.000314858169457 -0.000369270477486 0.800354592723)
(0.0012194191066 0.000273180771299 0.800347420834)
(0.000144966009499 -1.47688451348e-05 0.800445987793)
(0 0 0)
(0 -0 -0)
(0 -0 0)
(8.87292413598e-06 -1.08159281107e-05 0.797386878468)
(2.32542937267e-05 -1.20350415438e-05 0.800123730044)
(4.30224699544e-05 -1.33848255937e-05 0.800320186122)
(5.91730604706e-05 -1.60269315604e-05 0.800354304237)
(8.40587307011e-05 -2.01596398367e-05 0.800362101132)
(0.000107514353942 -2.80170281886e-05 0.80036302627)
(0.000143023433847 -3.76268942285e-05 0.800362708711)
(0.000186949563537 -6.19756851297e-05 0.800360278874)
(0.000226584763192 -8.41774107156e-05 0.800348311405)
(0.000343269768879 -0.000200977438768 0.800331133687)
(9.68891925057e-05 -0.000244416279617 0.800323634309)
(0.00117779878417 -0.000781182349921 0.800177660728)
(0.000108127764503 -0.000144552670978 0.800371538006)
(0 -0 0)
(0 -0 0)
(8.92584327353e-06 -1.75216826494e-05 0.797387232413)
(2.15896718665e-05 -1.90000748825e-05 0.800123994022)
(4.14039121253e-05 -2.02276987047e-05 0.800320513797)
(5.45704567904e-05 -2.4948717405e-05 0.800354453974)
(8.08973619802e-05 -2.99027226902e-05 0.800362781657)
(9.55861368326e-05 -4.29394758044e-05 0.800362856086)
(0.000140609662675 -5.37255039987e-05 0.800365338481)
(0.000151143339389 -8.4195559432e-05 0.800359937947)
(0.000242665229 -0.000112021223888 0.800365202325)
(0.000215784714393 -0.00017825944503 0.800339797826)
(0.000397743040661 -0.000273892996332 0.800354154967)
(0.000164892747255 -0.00025693074303 0.800340976464)
(0.000558665455404 -0.00101836377684 0.800281121076)
(8.76355270762e-05 -1.78266803486e-06 0.800411240657)
(7.03086386923e-05 -0.000136934510934 0.800367882365)
(7.18640433061e-06 -2.06352423716e-05 0.797387298742)
(1.95016866824e-05 -2.25696156595e-05 0.800124165119)
(3.49709994048e-05 -2.42956260273e-05 0.800320546014)
(4.85295356248e-05 -2.92390488719e-05 0.800354712837)
(6.5721108752e-05 -3.47805826409e-05 0.800362257095)
(8.36616630619e-05 -4.84028993497e-05 0.800363435637)
(0.000102088065003 -5.85904514953e-05 0.800362908874)
(0.000130369775708 -9.22546716378e-05 0.800362958364)
(0.000138927495185 -0.000106121760822 0.800358268147)
(0.00019038419708 -0.000196462753714 0.800359904588)
(0.000137408324612 -0.000191003824444 0.800336196613)
(0.000230769870449 -0.000405042106867 0.800350814676)
(4.00268287851e-05 -0.000263403635618 0.800305249362)
(-0.000183995250875 -0.000782086893142 0.800327380745)
(7.59261757675e-06 -0.00100442344256 0.800315592806)
(7.2331827744e-06 -2.44094514899e-05 0.797387904461)
(1.74387975863e-05 -2.61184599025e-05 0.800124643226)
(3.2780506938e-05 -2.78449658371e-05 0.800321047855)
(4.30375763074e-05 -3.25798355269e-05 0.800355048219)
(6.13422739522e-05 -3.88899874269e-05 0.800363002852)
(7.17033068807e-05 -5.01424023647e-05 0.800363457091)
(9.68888974328e-05 -6.32639908135e-05 0.800364755196)
(0.000104203295235 -8.3124327181e-05 0.800361945688)
(0.000140616336847 -0.000110790668099 0.80036521232)
(0.000134976462278 -0.000137327643345 0.800356894813)
(0.000177612792212 -0.000201194768797 0.8003651458)
(0.000147524907684 -0.000197266956302 0.800343185005)
(0.000165237741286 -0.000334582343143 0.800365293426)
(0.000186951069859 -0.00023127558274 0.800337816926)
(-3.61381165508e-05 -0.000350889312025 0.800346632687)
(5.43920883095e-06 -2.56946409974e-05 0.797388076258)
(1.49224986648e-05 -2.75989950085e-05 0.800124924682)
(2.62751494678e-05 -2.92600291073e-05 0.800321269268)
(3.63208370894e-05 -3.41899743308e-05 0.800355442267)
(4.77410450171e-05 -3.96061165511e-05 0.800362926088)
(5.91964989216e-05 -5.18345682512e-05 0.800364068321)
(6.91575658361e-05 -6.10349742528e-05 0.800363784471)
(8.31135351839e-05 -8.56547858966e-05 0.800363588868)
(8.5819826388e-05 -9.78094955299e-05 0.800361986584)
(0.000102544142594 -0.000145991185785 0.800362905675)
(8.43735847961e-05 -0.000154644112164 0.800358364913)
(9.6644353362e-05 -0.000239060634814 0.800362068661)
(5.15646174366e-05 -0.00023061760312 0.800354419941)
(2.85191008361e-05 -0.00034866974994 0.800355779739)
(-9.38410263729e-06 -0.000376729594304 0.800353693748)
(5.3773622696e-06 -2.63124251148e-05 0.797388841897)
(1.30868996009e-05 -2.78695139316e-05 0.800125553293)
(2.40322486852e-05 -2.95352194621e-05 0.800321870755)
(3.1573767889e-05 -3.34084900151e-05 0.800355935976)
(4.32849416767e-05 -3.8963511015e-05 0.800363622944)
(5.01753246399e-05 -4.74180461541e-05 0.800364380272)
(6.30636761335e-05 -5.78937295083e-05 0.800364877592)
(6.74802331389e-05 -7.08262831004e-05 0.800363379882)
(8.05888160903e-05 -8.90921581656e-05 0.800364455673)
(7.89030905492e-05 -0.000104023716191 0.800361350959)
(8.66450654955e-05 -0.000134978505891 0.800364255628)
(7.55531110586e-05 -0.000140375279254 0.800358460753)
(6.35482731337e-05 -0.000185979571534 0.800363543702)
(4.76751758416e-05 -0.000165715091151 0.800355903089)
(-1.20393657911e-05 -0.000203666000515 0.800359316983)
(3.96137589784e-06 -2.58180712134e-05 0.797389094562)
(1.08069354024e-05 -2.73163996327e-05 0.800125904628)
(1.88669344191e-05 -2.8665896314e-05 0.800322219926)
(2.5849601395e-05 -3.25555626154e-05 0.800356387369)
(3.33559069433e-05 -3.69772567568e-05 0.800363852375)
(4.01733852681e-05 -4.58559401754e-05 0.800364937595)
(4.57358053836e-05 -5.30172286081e-05 0.80036477195)
(5.19390608027e-05 -6.83634325045e-05 0.800364307896)
(5.27614974732e-05 -7.7679427033e-05 0.800363641117)
(5.69330518369e-05 -0.000101878947084 0.800363388193)
(4.8744620467e-05 -0.000111099489842 0.800362265527)
(4.70934607444e-05 -0.000143994577074 0.800362501729)
(2.86833120953e-05 -0.000149270911395 0.800361107785)
(1.4693316474e-05 -0.000180514265725 0.800360841041)
(-6.01482342946e-06 -0.000182574083198 0.800360610258)
(3.81944380402e-06 -2.3856107041e-05 0.797389905629)
(9.40941460322e-06 -2.50869696764e-05 0.800126579275)
(1.69474249178e-05 -2.64263010181e-05 0.800322812235)
(2.23134860574e-05 -2.92247518428e-05 0.800356909234)
(2.96408849566e-05 -3.33170760637e-05 0.800364445304)
(3.40525832785e-05 -3.91234831643e-05 0.800365363191)
(4.05430811159e-05 -4.62211116228e-05 0.800365467614)
(4.28253440489e-05 -5.44379306287e-05 0.800364531836)
(4.71071329693e-05 -6.51592460973e-05 0.800364643463)
(4.55575074772e-05 -7.4172176024e-05 0.800363197341)
(4.47195605106e-05 -8.89377875252e-05 0.800363857742)
(3.77985523763e-05 -9.44116440929e-05 0.800361749904)
(2.75900651032e-05 -0.000111331402464 0.800363064245)
(1.51004392951e-05 -0.000107717729347 0.800360619133)
(-6.17795816758e-06 -0.000119489604096 0.800361944295)
(2.87003462957e-06 -2.18728078883e-05 0.79739018412)
(7.6890157585e-06 -2.2879380472e-05 0.800126907393)
(1.33951599004e-05 -2.38493737842e-05 0.800323021102)
(1.81768337536e-05 -2.65250263449e-05 0.800357102346)
(2.31809560668e-05 -2.9680435476e-05 0.800364528176)
(2.72095028841e-05 -3.54430396842e-05 0.800365575174)
(3.0421459832e-05 -4.03531174207e-05 0.800365431595)
(3.30164940176e-05 -4.9296523286e-05 0.80036486959)
(3.30520927463e-05 -5.54450327756e-05 0.800364413006)
(3.31898061113e-05 -6.75627858967e-05 0.800363852014)
(2.85668103623e-05 -7.37401760662e-05 0.800363391294)
(2.47949710803e-05 -8.73487265109e-05 0.800362940232)
(1.54464347583e-05 -9.14103378486e-05 0.800362613442)
(6.67450443293e-06 -0.000101446495209 0.800362168723)
(-4.33346041148e-06 -0.000100838009066 0.800362263089)
(2.71560426545e-06 -1.81372170602e-05 0.797390894317)
(6.73276993436e-06 -1.8977058048e-05 0.800127249489)
(1.19729098064e-05 -1.99458841755e-05 0.800322481287)
(1.58238491174e-05 -2.17344174304e-05 0.800356176284)
(2.05219440794e-05 -2.43762926674e-05 0.80036350762)
(2.33759084751e-05 -2.79804823829e-05 0.800364460367)
(2.67457307517e-05 -3.22937267293e-05 0.800364388179)
(2.7807058645e-05 -3.7170423146e-05 0.800363672303)
(2.89241100711e-05 -4.30770263116e-05 0.800363420062)
(2.73482884584e-05 -4.8266116604e-05 0.8003625371)
(2.50212623547e-05 -5.5343816463e-05 0.800362485958)
(2.02139452966e-05 -5.89476515119e-05 0.800361507052)
(1.35580989613e-05 -6.57430757462e-05 0.800361726694)
(5.72332248587e-06 -6.55448507683e-05 0.800360776057)
(-4.13751731379e-06 -6.934393113e-05 0.800361220973)
(2.19752902113e-06 -1.505169229e-05 0.797390982159)
(5.67019329579e-06 -1.55888258983e-05 0.800125482205)
(9.93614544711e-06 -1.62352301179e-05 0.800316984603)
(1.33746290518e-05 -1.78456754282e-05 0.80034932306)
(1.69390254854e-05 -1.97774769149e-05 0.800356184205)
(1.94697788285e-05 -2.31380434501e-05 0.800357070848)
(2.14923585746e-05 -2.60400058015e-05 0.800356898043)
(2.25274607754e-05 -3.09513716992e-05 0.800356301781)
(2.22772184666e-05 -3.44415681841e-05 0.800355879743)
(2.12460908289e-05 -4.05326753027e-05 0.800355262131)
(1.81927391339e-05 -4.38995744618e-05 0.800354907855)
(1.4663899657e-05 -5.00166030429e-05 0.800354387757)
(9.04529784596e-06 -5.20834188388e-05 0.800354188513)
(3.17974322146e-06 -5.6079859666e-05 0.80035380874)
(-3.49646795353e-06 -5.54315873518e-05 0.800353849121)
(2.09766188447e-06 -1.0333574576e-05 0.797387690399)
(5.17789605287e-06 -1.07498999074e-05 0.800109872969)
(9.24567111629e-06 -1.14314229254e-05 0.800288869599)
(1.22655674671e-05 -1.23154454279e-05 0.800316967965)
(1.56730188161e-05 -1.37018366886e-05 0.800322464735)
(1.77316987323e-05 -1.5488448988e-05 0.800322964239)
(1.97587722901e-05 -1.76921131106e-05 0.800322751283)
(2.02761111205e-05 -2.00609047283e-05 0.800322090529)
(2.03355373876e-05 -2.29502540112e-05 0.800321727633)
(1.88524277385e-05 -2.53895916299e-05 0.800321024069)
(1.64909188911e-05 -2.86401199711e-05 0.800320765139)
(1.28352197017e-05 -3.03171142331e-05 0.800320128416)
(8.09676113171e-06 -3.31982397307e-05 0.800320036959)
(2.69363378652e-06 -3.32426539425e-05 0.800319555558)
(-3.36417458111e-06 -3.47021465393e-05 0.800319656262)
(2.02339089402e-06 -6.65260948157e-06 0.797282881422)
(4.9168217604e-06 -6.83146382557e-06 0.799973645651)
(8.80951894225e-06 -7.25142740948e-06 0.800109879618)
(1.14063265133e-05 -7.93753808921e-06 0.800125464363)
(1.46298840311e-05 -8.72799027824e-06 0.800127246287)
(1.63506185418e-05 -1.02302848826e-05 0.800126852533)
(1.81722026674e-05 -1.13517220876e-05 0.800126549704)
(1.85032099085e-05 -1.35804807607e-05 0.800125791351)
(1.83641746004e-05 -1.48341833279e-05 0.80012547726)
(1.6928484564e-05 -1.76017577186e-05 0.80012472806)
(1.45432900522e-05 -1.86580938509e-05 0.800124501314)
(1.12222700912e-05 -2.14616266322e-05 0.800123864212)
(6.87552947939e-06 -2.18561411009e-05 0.800123780664)
(2.07005494582e-06 -2.38444176838e-05 0.80012332994)
(-3.18568112479e-06 -2.3086250173e-05 0.800123423239)
(2.10924534189e-06 -1.88781716216e-06 0.793883962974)
(4.69453519651e-06 -1.96377811212e-06 0.797282870927)
(8.75284073503e-06 -2.15525702586e-06 0.797387698692)
(1.08368309178e-05 -2.20514341387e-06 0.797390945023)
(1.43200078811e-05 -2.49717039184e-06 0.797390899199)
(1.5516038803e-05 -2.62142365432e-06 0.797390098114)
(1.76653389509e-05 -3.1045796263e-06 0.797389889853)
(1.75194746452e-05 -3.19205495725e-06 0.79738893208)
(1.77652461371e-05 -3.882397793e-06 0.797388779885)
(1.59697202365e-05 -3.79543932926e-06 0.797387804894)
(1.40056342202e-05 -4.67156492631e-06 0.797387769167)
(1.05388995283e-05 -4.28515858134e-06 0.797386890563)
(6.56857875086e-06 -5.23581321072e-06 0.797387012901)
(1.89138473536e-06 -4.53876411112e-06 0.79738633254)
(-3.15259991409e-06 -5.3688292626e-06 0.797386625626)
(9.99463872698e-06 -7.70612156035e-06 0.797363100137)
(2.1331014145e-05 -8.17654141354e-06 0.800100167201)
(4.41110260109e-05 -7.85664893781e-06 0.800297178502)
(5.60762501161e-05 -1.13624035619e-05 0.800328999713)
(8.75581901963e-05 -1.15788659232e-05 0.800335150063)
(0.000101992787431 -2.45086669996e-05 0.800327793772)
(0.000161481557555 -2.05824646695e-05 0.80032697851)
(0.000175418283829 -6.84482131812e-05 0.800298151239)
(0.000324875081139 -3.86096574226e-05 0.800304456238)
(0.000301674788586 -0.00025041148998 0.800189068868)
(0.000836922261015 0.000180072646319 0.80034839632)
(0.000198520463298 7.90218404033e-06 0.800265233406)
(0 -0 0)
(0 -0 -0)
(0 0 0)
(9.0814528014e-06 -1.03240732406e-05 0.797363278824)
(2.02999960095e-05 -1.1614716868e-05 0.800100508085)
(4.04807652136e-05 -1.28837684533e-05 0.800297435288)
(5.28479363464e-05 -1.52773283656e-05 0.800329819082)
(7.71380171813e-05 -1.89945486396e-05 0.800335343327)
(9.44311553713e-05 -2.60912987484e-05 0.800330878695)
(0.000124566099473 -3.53636146835e-05 0.800326176939)
(0.000158120833055 -5.74021277705e-05 0.800312953394)
(0.000171760105023 -7.96979880567e-05 0.800296679635)
(0.000272851944418 -0.000168016767368 0.800271527672)
(7.69067013435e-05 -0.000187893138804 0.800199275124)
(0.000811632386378 -0.000496528829508 0.800418707544)
(5.82836739135e-05 -0.000137124378173 0.800240418332)
(0 -0 0)
(0 -0 0)
(9.35495773039e-06 -1.78043044317e-05 0.797363774013)
(1.91621435868e-05 -1.93055064855e-05 0.800100968324)
(3.97774676677e-05 -1.99588185814e-05 0.800298084525)
(4.94307434696e-05 -2.51272544225e-05 0.800330290922)
(7.65329981021e-05 -2.88238668821e-05 0.800336707483)
(8.55891025566e-05 -4.28752781248e-05 0.800330999859)
(0.000130255052798 -5.01060486195e-05 0.800330443688)
(0.000131384772112 -8.06430022207e-05 0.800310329628)
(0.000214006616643 -9.83488070154e-05 0.8003154097)
(0.00017600136334 -0.00014836277843 0.800253390579)
(0.000318239557837 -0.000224338955324 0.800287919191)
(0.000156718924948 -0.000179857038512 0.800123807185)
(0.000378630366367 -0.00072571770689 0.800383881963)
(0.000124905522974 -4.66378276417e-05 0.800278053371)
(6.94998426836e-06 -0.000118730026164 0.800248927608)
(7.13792210376e-06 -1.96185612017e-05 0.797364398438)
(1.69609613696e-05 -2.17841118963e-05 0.800101849635)
(3.22853506024e-05 -2.31761034443e-05 0.800298834899)
(4.30523085544e-05 -2.81837091323e-05 0.800332001627)
(5.90483959317e-05 -3.23779338245e-05 0.800337736539)
(7.30902789427e-05 -4.60261925983e-05 0.800335938816)
(8.69061062462e-05 -5.29743653219e-05 0.800331742349)
(0.000110428944605 -8.54882580127e-05 0.800326965133)
(0.000105952532324 -9.21453762706e-05 0.800315843794)
(0.000154940419794 -0.000171753352746 0.800314830208)
(8.31152589044e-05 -0.000154552108763 0.800279647835)
(0.000174557803549 -0.00033578446722 0.800317848654)
(4.02888530726e-06 -0.000194154853526 0.800225272377)
(-0.000150893884785 -0.000619317661594 0.800481830938)
(1.86436538504e-06 -0.000831104037617 0.800359928102)
(7.59968982689e-06 -2.36856333663e-05 0.797365118643)
(1.5688302264e-05 -2.55354825113e-05 0.80010254149)
(3.16222559311e-05 -2.67927983305e-05 0.800299747913)
(3.93099561845e-05 -3.15730965936e-05 0.8003327159)
(5.83272760947e-05 -3.65278573398e-05 0.800339295427)
(6.49191304276e-05 -4.75256015972e-05 0.800336324411)
(9.08502447556e-05 -5.76237021862e-05 0.800335245016)
(9.2578584295e-05 -7.52458558415e-05 0.800325024461)
(0.000128851170867 -9.70882144756e-05 0.800325530693)
(0.000117122367111 -0.00011355288301 0.800302178158)
(0.000159064858393 -0.000168304369417 0.800309657811)
(0.000128107083839 -0.000140721458828 0.800261370511)
(0.000142825622067 -0.000273269592697 0.800283343739)
(0.000166819336642 -0.000143146462611 0.80021063972)
(-2.87358388332e-05 -0.000271391668905 0.800201003165)
(5.32337569458e-06 -2.44983638084e-05 0.797365973699)
(1.3091477444e-05 -2.66533599332e-05 0.800103617792)
(2.41119339199e-05 -2.79392650331e-05 0.800300752809)
(3.2283039189e-05 -3.30326953811e-05 0.800334478765)
(4.27109333645e-05 -3.70948619162e-05 0.800340760813)
(5.19030884908e-05 -4.96779540887e-05 0.800340370348)
(5.91802260125e-05 -5.5823012494e-05 0.800337650865)
(7.10557422483e-05 -8.08918100777e-05 0.800335413084)
(6.78828979059e-05 -8.7023197223e-05 0.80032960204)
(8.48360498057e-05 -0.000134494490056 0.800329734794)
(5.85608965803e-05 -0.000133276160415 0.80031731308)
(7.72087739944e-05 -0.000214460863296 0.800328555426)
(2.98849681774e-05 -0.00019489380389 0.80030486774)
(1.76485855901e-05 -0.00030662112312 0.80033739814)
(-6.43109984974e-06 -0.000336782592715 0.800312825978)
(5.63670438409e-06 -2.50247935242e-05 0.797366791847)
(1.20132675197e-05 -2.6788891221e-05 0.800104427286)
(2.32639819744e-05 -2.81607365356e-05 0.800301724571)
(2.91797483206e-05 -3.19080503667e-05 0.80033533792)
(4.13035418893e-05 -3.63629389311e-05 0.800342155141)
(4.60984172893e-05 -4.42424422125e-05 0.800341141113)
(5.96239006864e-05 -5.26023676309e-05 0.800340047219)
(6.14252857997e-05 -6.35778822509e-05 0.800335236956)
(7.53536558032e-05 -7.85924247679e-05 0.800334096394)
(7.13056980229e-05 -8.78474694475e-05 0.800325472169)
(8.01302605145e-05 -0.00011539789869 0.800325709065)
(6.92083433658e-05 -0.000109201597881 0.800312034694)
(5.84270404195e-05 -0.000154776675263 0.800314355268)
(4.73553948045e-05 -0.000121135214038 0.800298764095)
(-1.06917339509e-05 -0.000165984091606 0.800299448598)
(3.88465753337e-06 -2.47388849105e-05 0.79736766284)
(9.68039098175e-06 -2.64305783244e-05 0.80010545179)
(1.74092609047e-05 -2.74745650569e-05 0.800302737642)
(2.31912934866e-05 -3.15057716532e-05 0.800336807868)
(3.00405531032e-05 -3.49543545777e-05 0.800343582915)
(3.55790113839e-05 -4.4152993653e-05 0.800343918711)
(3.98283220895e-05 -4.93079037322e-05 0.80034235178)
(4.50662783637e-05 -6.52792538739e-05 0.800340976234)
(4.35944409714e-05 -7.10900595181e-05 0.800338002549)
(4.81019317742e-05 -9.61753992861e-05 0.800337485914)
(3.73053703355e-05 -0.000100296400482 0.800332717524)
(3.84873053125e-05 -0.000134329569337 0.800335299271)
(2.0045974069e-05 -0.000134367665196 0.80032834969)
(1.07804244473e-05 -0.000167281071713 0.800335490474)
(-5.09629687625e-06 -0.000167842676747 0.800328542641)
(3.99448032321e-06 -2.24918804463e-05 0.797368453646)
(8.84599965061e-06 -2.3937620576e-05 0.800106241062)
(1.64709050969e-05 -2.51288210382e-05 0.800303604955)
(2.08685799757e-05 -2.7783070177e-05 0.800337616997)
(2.83432967371e-05 -3.11081153572e-05 0.800344678237)
(3.16690411096e-05 -3.64246361077e-05 0.800344768238)
(3.84835891431e-05 -4.21705582099e-05 0.80034394954)
(3.96421506604e-05 -4.9165060779e-05 0.800341620674)
(4.44588250956e-05 -5.80391195255e-05 0.800340415491)
(4.21212694401e-05 -6.43085229806e-05 0.800337025276)
(4.20235088201e-05 -7.73799516431e-05 0.800336060533)
(3.53258892417e-05 -7.81075463955e-05 0.800331878719)
(2.59250410336e-05 -9.49796418962e-05 0.800331480557)
(1.48390723627e-05 -8.6257859842e-05 0.800327965586)
(-5.77750827374e-06 -0.000100834172201 0.800328231996)
(2.85758751873e-06 -2.11202346916e-05 0.797369190611)
(7.10465795086e-06 -2.22408998956e-05 0.800107044686)
(1.2536441254e-05 -2.29932522416e-05 0.800304289492)
(1.6561120097e-05 -2.57617096091e-05 0.800338470345)
(2.11560047372e-05 -2.83309981088e-05 0.800345550153)
(2.4462809055e-05 -3.42924343475e-05 0.800346265191)
(2.70871784084e-05 -3.8077032956e-05 0.800345393141)
(2.92091859594e-05 -4.74266257895e-05 0.800344431352)
(2.84658764913e-05 -5.18010470381e-05 0.800342846266)
(2.87784367971e-05 -6.45987945314e-05 0.800342138443)
(2.35254432746e-05 -6.84519804577e-05 0.800340089051)
(2.09354871781e-05 -8.3083137497e-05 0.800340332843)
(1.19878491391e-05 -8.48760901478e-05 0.800337975085)
(5.07977535114e-06 -9.62962344417e-05 0.800339543502)
(-4.04192478877e-06 -9.43468350886e-05 0.800337494166)
(2.83552483368e-06 -1.70585295504e-05 0.797369829447)
(6.47940634523e-06 -1.80763614413e-05 0.800107431446)
(1.16740372774e-05 -1.89950212384e-05 0.800303908308)
(1.49449697607e-05 -2.06754481976e-05 0.800337725707)
(1.96291554983e-05 -2.28434075129e-05 0.800344832521)
(2.19183594826e-05 -2.61139328881e-05 0.800345444344)
(2.5399024217e-05 -2.96244098943e-05 0.800344893844)
(2.59827951542e-05 -3.38174287539e-05 0.800343638858)
(2.73588353647e-05 -3.86909063003e-05 0.80034271167)
(2.55433230878e-05 -4.2621720426e-05 0.80034116792)
(2.36106823803e-05 -4.87716386544e-05 0.800340312007)
(1.89702710913e-05 -5.05242315897e-05 0.800338786806)
(1.27723305727e-05 -5.709773967e-05 0.800338228611)
(5.41695959739e-06 -5.50952019307e-05 0.800337258219)
(-4.00933049315e-06 -5.98020817552e-05 0.800337246582)
(2.23067487856e-06 -1.47414212285e-05 0.797370192205)
(5.41221276199e-06 -1.53255414742e-05 0.8001059289)
(9.45940185722e-06 -1.58445092366e-05 0.800298643716)
(1.2413308272e-05 -1.75218618058e-05 0.800331185528)
(1.57229260709e-05 -1.91538889109e-05 0.800337894412)
(1.78353589256e-05 -2.26337576412e-05 0.800338649838)
(1.96105033744e-05 -2.49656875165e-05 0.800338116078)
(2.03970396665e-05 -3.01057018971e-05 0.80033735849)
(1.9937760921e-05 -3.27539843361e-05 0.800336412597)
(1.8976099528e-05 -3.92278346847e-05 0.800335720088)
(1.58840598076e-05 -4.156561639e-05 0.800334696011)
(1.28387944044e-05 -4.82471376928e-05 0.800334368662)
(7.58214805025e-06 -4.93218945318e-05 0.800333428428)
(2.46586179722e-06 -5.40469815528e-05 0.800333641337)
(-3.39508788608e-06 -5.26377923616e-05 0.800333018116)
(2.16389586809e-06 -9.71461365187e-06 0.79736682069)
(5.00899146132e-06 -1.02607467073e-05 0.800090251157)
(8.95979727064e-06 -1.09768768352e-05 0.80027036398)
(1.16072221947e-05 -1.17944224345e-05 0.80029864179)
(1.49209668994e-05 -1.29334637383e-05 0.800304025891)
(1.66484640511e-05 -1.44928693844e-05 0.800304410112)
(1.86718438649e-05 -1.62662183711e-05 0.800303932574)
(1.89602895731e-05 -1.82145448238e-05 0.800303083829)
(1.9129747651e-05 -2.05688718885e-05 0.800302360387)
(1.75867805524e-05 -2.23371029488e-05 0.800301457269)
(1.54527512792e-05 -2.51237022512e-05 0.80030078887)
(1.19416599168e-05 -2.59310907132e-05 0.8003000436)
(7.5217849258e-06 -2.86823898233e-05 0.800299585241)
(2.39455373598e-06 -2.79447136046e-05 0.800299216687)
(-3.30467603318e-06 -2.97728152672e-05 0.80029911828)
(2.04733606746e-06 -6.7445932894e-06 0.797262094018)
(4.70009999677e-06 -6.95650755394e-06 0.799953710041)
(8.40928635647e-06 -7.38076540938e-06 0.8000903081)
(1.06107088068e-05 -8.14048498469e-06 0.800105981312)
(1.36493513439e-05 -8.81954696601e-06 0.800107636766)
(1.50225607177e-05 -1.04286531516e-05 0.800107253779)
(1.67185881498e-05 -1.13125015311e-05 0.800106708101)
(1.6841011975e-05 -1.37306420183e-05 0.800105951098)
(1.6675077932e-05 -1.4628427102e-05 0.800105291029)
(1.52565063409e-05 -1.76974105792e-05 0.800104582423)
(1.30055451956e-05 -1.83118436048e-05 0.800103938951)
(9.95771193911e-06 -2.15252254969e-05 0.800103463888)
(5.97283548172e-06 -2.14619385887e-05 0.800102958573)
(1.59656409381e-06 -2.39124994856e-05 0.800102850211)
(-3.09367516326e-06 -2.27187771313e-05 0.800102607495)
(2.08287609033e-06 -1.62167908588e-06 0.793863149526)
(4.40794626971e-06 -1.76183627091e-06 0.797262080364)
(8.31473262221e-06 -1.97823661219e-06 0.797366886392)
(1.00243014051e-05 -1.96634360934e-06 0.797370219596)
(1.33554959306e-05 -2.19570900125e-06 0.797370038132)
(1.42005024116e-05 -2.15042796371e-06 0.797369337971)
(1.62797781137e-05 -2.53318941609e-06 0.797368887712)
(1.59138473244e-05 -2.31673126513e-06 0.797368034165)
(1.62172104067e-05 -2.91629535969e-06 0.797367537881)
(1.44117129324e-05 -2.36507712338e-06 0.797366696875)
(1.26665386403e-05 -3.23706938336e-06 0.797366244182)
(9.4102115646e-06 -2.26069666998e-06 0.79736559345)
(5.83494812295e-06 -3.38198424728e-06 0.797365287327)
(1.48031460635e-06 -2.11404458981e-06 0.797364982638)
(-3.02636583073e-06 -3.3304252838e-06 0.797364926602)
(8.09138659805e-06 -5.76070340409e-06 0.797353503888)
(2.13459071528e-05 -6.12179842682e-06 0.800088855681)
(3.89837605933e-05 -6.40959740949e-06 0.800284277606)
(5.38127893194e-05 -7.96599172099e-06 0.800314511582)
(7.54764535369e-05 -9.5675941076e-06 0.800318567085)
(9.71132403632e-05 -1.39042833411e-05 0.80030861762)
(0.000127872138709 -1.85434762496e-05 0.800302192677)
(0.000168595767114 -2.83398863636e-05 0.800273012301)
(0.00021017147274 -4.75193038039e-05 0.800262406498)
(0.000316093817349 -6.01962810952e-05 0.80017344131)
(0.000319243220168 -0.000157591469979 0.800172049127)
(0.000766928125309 4.71113401406e-05 0.799883379742)
(-1.61693076759e-05 2.41696533914e-05 0.800215748734)
(0 0 0)
(0 -0 0)
(7.57748753042e-06 -9.71730159968e-06 0.79735408101)
(2.03956958507e-05 -1.07173597974e-05 0.800089610575)
(3.67408453638e-05 -1.18912562275e-05 0.800284972773)
(5.0941936924e-05 -1.3898816526e-05 0.800316028506)
(7.01202592963e-05 -1.76065339796e-05 0.800319848501)
(8.96254529559e-05 -2.28310223557e-05 0.800313551836)
(0.000114724894546 -3.24324066603e-05 0.800305048261)
(0.000144652884126 -4.40234937114e-05 0.800292524891)
(0.000178838070888 -7.22297854991e-05 0.8002688891)
(0.00021671434104 -9.62169816283e-05 0.800262885506)
(0.000279762009236 -0.000198278796145 0.800177915184)
(0.000229256315244 -0.000203556618454 0.80029319505)
(0.000801099902776 -0.000742763192256 0.799750751221)
(7.86348607867e-05 -0.00011257721196 0.800227654639)
(-2.76599112089e-05 -0.000134700258998 0.800178039928)
(7.47842379476e-06 -1.57160795361e-05 0.797354638125)
(1.91510317663e-05 -1.68008022818e-05 0.800090201049)
(3.50784689034e-05 -1.79193362164e-05 0.80028587758)
(4.75628651859e-05 -2.13481140871e-05 0.800316602636)
(6.6342429856e-05 -2.59614521547e-05 0.800321586069)
(8.22519806572e-05 -3.4650872308e-05 0.800313433397)
(0.000106710176148 -4.48797794148e-05 0.800309816828)
(0.000129083330415 -6.24290937678e-05 0.800288236855)
(0.000158180147363 -8.50051669835e-05 0.800286395769)
(0.000190420821113 -0.000119628823765 0.800237095904)
(0.000202307878532 -0.000164124261406 0.800252948231)
(0.000235456369286 -0.000244564566175 0.800149410952)
(0.000170314531197 -0.000242227401461 0.800243695157)
(3.73351065168e-06 -0.000821426991421 0.799959969783)
(-6.90217453113e-06 -0.000887906254349 0.799852018112)
(6.30088871259e-06 -1.84654472875e-05 0.797356072336)
(1.7125242428e-05 -1.99912942025e-05 0.80009191069)
(3.04249554766e-05 -2.1551855616e-05 0.800287371455)
(4.20206582516e-05 -2.52367706636e-05 0.800319507017)
(5.64990716317e-05 -3.05091182751e-05 0.800323945357)
(7.06243521956e-05 -3.96297233682e-05 0.800320823719)
(8.69002392107e-05 -5.07655455771e-05 0.800313870662)
(0.000104729010842 -6.85700700715e-05 0.800308749261)
(0.000122223684752 -9.1484356704e-05 0.80029198779)
(0.000140028959396 -0.0001231170416 0.80029544123)
(0.000160061319671 -0.000171008397356 0.8002526221)
(0.000153322879951 -0.000210009359451 0.800295548719)
(0.000194288798325 -0.000294239449384 0.800193404486)
(0.00015061751198 -0.000303041238084 0.800312871201)
(-4.12733411982e-05 -0.000375616011997 0.800203517096)
(6.15920442975e-06 -2.18796740633e-05 0.797356808828)
(1.54714478134e-05 -2.32391112762e-05 0.80009273876)
(2.8163755655e-05 -2.46830562145e-05 0.800288618403)
(3.76397989198e-05 -2.8491499773e-05 0.800320357834)
(5.1584783984e-05 -3.38955935313e-05 0.800326010094)
(6.18734628904e-05 -4.282169817e-05 0.800321005197)
(7.77257068844e-05 -5.35005390686e-05 0.800318358703)
(8.83182124681e-05 -6.93408739619e-05 0.800305764684)
(0.00010395460467 -8.86283666688e-05 0.800303560406)
(0.000111840513295 -0.000115196920932 0.800280323048)
(0.000117159014082 -0.000145943242733 0.800283102271)
(0.000113050876451 -0.000191815942039 0.800244407332)
(8.76388885224e-05 -0.000221338188481 0.800256100776)
(5.68325771757e-05 -0.000323012343161 0.800203186169)
(-1.27719476316e-05 -0.00035311236047 0.800178707644)
(4.85030868351e-06 -2.30084630505e-05 0.797358635112)
(1.31751454341e-05 -2.45355447018e-05 0.800094774877)
(2.31593530466e-05 -2.60020117762e-05 0.800290461118)
(3.17410293804e-05 -2.98619297907e-05 0.800323387472)
(4.17815516989e-05 -3.48818447013e-05 0.800328777114)
(5.09177846457e-05 -4.38735540936e-05 0.800327432359)
(6.0380350794e-05 -5.30808886974e-05 0.800323005548)
(6.96379702657e-05 -6.88154367928e-05 0.800320115286)
(7.65838857239e-05 -8.37738920605e-05 0.80031102111)
(8.30127435677e-05 -0.000108303512384 0.80031203652)
(8.40345057874e-05 -0.000130368897731 0.800294207362)
(7.92126438771e-05 -0.000160703070163 0.800307696605)
(6.90185398884e-05 -0.000186304867442 0.800276501968)
(4.53794552268e-05 -0.000207764781637 0.800307515266)
(-1.23672753406e-05 -0.00022572061437 0.800274446085)
(4.65914647582e-06 -2.36073074432e-05 0.79735945286)
(1.16194117203e-05 -2.48977104544e-05 0.800095727814)
(2.0924522397e-05 -2.62653251232e-05 0.800291765977)
(2.77244510945e-05 -2.95561621678e-05 0.80032443736)
(3.71893208125e-05 -3.42930865172e-05 0.800330634077)
(4.35593497903e-05 -4.15433420529e-05 0.800328172589)
(5.27504144614e-05 -5.01066261647e-05 0.800326199368)
(5.75453902328e-05 -6.15990310024e-05 0.800319427918)
(6.44843819378e-05 -7.50765416096e-05 0.800317097398)
(6.52024693902e-05 -9.12563063568e-05 0.800306608697)
(6.49275792962e-05 -0.000109875560207 0.800305303833)
(5.75621171221e-05 -0.000130119304678 0.800291216062)