/*--------------------------------*- C++ -*----------------------------------*\
| =========                 |                                                 |
| \\      /  F ield         | OpenFOAM: The Open Source CFD Toolbox           |
|  \\    /   O peration     | Version:  2406                                  |
|   \\  /    A nd           | Website:  www.openfoam.com                      |
|    \\/     M anipulation  |                                                 |
\*---------------------------------------------------------------------------*/
FoamFile
{
    version     2.0;
    format      ascii;
    arch        "LSB;label=32;scalar=64";
    class       volVectorField;
    location    "0.01";
    object      U_0;
}
// * * * * * * * * * * * * * * * * * * * * * * * * * * * * * * * * * * * * * //

dimensions      [0 1 -1 0 0 0 0];

internalField   nonuniform List<vector> 
29768
(
(9.62554900201e-06 -6.26184458175e-06 0.797398645014)
(2.39727774972e-05 -6.89007816149e-06 0.800123928723)
(4.59980361355e-05 -7.00916041803e-06 0.800319020147)
(6.15854348291e-05 -9.67338133123e-06 0.800352609641)
(9.26043093187e-05 -1.0231265359e-05 0.800361044852)
(0.000112398628256 -1.99700949372e-05 0.800361096848)
(0.000173053774291 -1.76833838841e-05 0.80036400933)
(0.000192355846008 -5.47946047354e-05 0.800356118544)
(0.000351538887431 -3.4515369853e-05 0.800356235176)
(0.000312733894846 -0.00036656012534 0.800352996491)
(0.00121121619123 0.000270727428683 0.800345966437)
(0.000144514668408 -1.48515033788e-05 0.800443861229)
(0 0 0)
(0 -0 -0)
(0 -0 0)
(8.83128632557e-06 -1.07496570128e-05 0.79739863427)
(2.31239613962e-05 -1.19591515915e-05 0.800123973409)
(4.27957974783e-05 -1.33006165148e-05 0.800318923561)
(5.8847546279e-05 -1.59283155106e-05 0.800352667307)
(8.36119771428e-05 -2.00326971425e-05 0.800360355433)
(0.000106920066663 -2.78430164629e-05 0.800361266852)
(0.000142243999442 -3.73824476125e-05 0.800360962658)
(0.000185898934356 -6.1581390422e-05 0.800358585739)
(0.000225285056889 -8.35806270846e-05 0.80034674895)
(0.000341404154311 -0.000199592689492 0.800329770943)
(9.66365984098e-05 -0.000242495136584 0.800322386397)
(0.00116966772574 -0.000776237281266 0.800178194542)
(0.000107858928829 -0.00014404454408 0.800369730469)
(0 -0 0)
(0 -0 0)
(8.88260955846e-06 -1.74157086189e-05 0.797398984372)
(2.14685619315e-05 -1.88866981747e-05 0.800124234524)
(4.11862853532e-05 -2.01077617803e-05 0.800319248027)
(5.42707656337e-05 -2.48052231653e-05 0.80035281433)
(8.04716047994e-05 -2.972592237e-05 0.800361028338)
(9.50574870728e-05 -4.26907015908e-05 0.80036109228)
(0.000139863260797 -5.33999418662e-05 0.80036356418)
(0.000150281511697 -8.36930638968e-05 0.800358224216)
(0.0002413692001 -0.00011131988567 0.800363488731)
(0.000214505092366 -0.000177125705721 0.800338310374)
(0.00039578669349 -0.000272217609666 0.800352612552)
(0.000164100964118 -0.000255136056156 0.800339494252)
(0.000555445566144 -0.0010120402682 0.800280562714)
(8.74369643241e-05 -2.31965453836e-06 0.800409248063)
(7.02129669328e-05 -0.000137132843403 0.800366138363)
(7.15438299841e-06 -2.05168176983e-05 0.797399051664)
(1.93961612043e-05 -2.24387444066e-05 0.800124405252)
(3.47932272975e-05 -2.41551252988e-05 0.800319280226)
(4.82710588729e-05 -2.90745691133e-05 0.800353071431)
(6.53835487919e-05 -3.45797859719e-05 0.80036050786)
(8.32160833375e-05 -4.81293140038e-05 0.800361667238)
(0.000101556509794 -5.82424113093e-05 0.80036115043)
(0.000129670639024 -9.17256594557e-05 0.800361216869)
(0.000138187938378 -0.000105462191256 0.800356586843)
(0.000189373018644 -0.000195327787514 0.800358254722)
(0.000136676937147 -0.000189769849635 0.800334757494)
(0.00022963292056 -0.000402851231951 0.800349307325)
(3.99509537702e-05 -0.000261606570262 0.800304174562)
(-0.000182345554257 -0.000777738234048 0.800326168462)
(7.64514321264e-06 -0.000998464512356 0.800314651093)
(7.19897238601e-06 -2.42704652035e-05 0.797399651547)
(1.734412592e-05 -2.59702270203e-05 0.800124878961)
(3.26138482526e-05 -2.76881891001e-05 0.800319777514)
(4.28090911622e-05 -3.24011789336e-05 0.800353402649)
(6.103006544e-05 -3.86732792086e-05 0.800361245274)
(7.13226240356e-05 -4.98669939603e-05 0.800361683278)
(9.6395382088e-05 -6.29071923451e-05 0.800362974906)
(0.000103644206879 -8.26603378221e-05 0.800360195199)
(0.000139904202641 -0.000110159018035 0.800363455391)
(0.000134247910404 -0.000136540711925 0.800355217196)
(0.000176746415909 -0.000200057806688 0.800363444338)
(0.000146740464431 -0.000196117127941 0.800341645444)
(0.000164433562747 -0.000332746241495 0.800363621448)
(0.000185979849607 -0.000229762397691 0.800336307589)
(-3.57760269795e-05 -0.000348619836791 0.800345116)
(5.41629397445e-06 -2.5551528662e-05 0.797399823361)
(1.48449153864e-05 -2.74447868434e-05 0.800125158821)
(2.61471011696e-05 -2.90972477228e-05 0.800319997153)
(3.61340337187e-05 -3.40048669743e-05 0.800353793385)
(4.75050043967e-05 -3.93876997465e-05 0.800361168442)
(5.88921673083e-05 -5.15546513047e-05 0.800362288626)
(6.88136077735e-05 -6.06935156273e-05 0.800362008843)
(8.26851148038e-05 -8.51906076568e-05 0.800361821799)
(8.53910593738e-05 -9.72533635515e-05 0.800360243386)
(0.000102017126499 -0.000145202534684 0.800361170007)
(8.3954779968e-05 -0.000153756024003 0.800356681965)
(9.61520018005e-05 -0.000237797264307 0.800360373037)
(5.1301449592e-05 -0.000229287003055 0.800352798784)
(2.83465882044e-05 -0.000346761709922 0.800354147499)
(-9.25091714846e-06 -0.000374486229665 0.800352104668)
(5.35286284364e-06 -2.61681034875e-05 0.797400582224)
(1.30185410432e-05 -2.77162875835e-05 0.800125782268)
(2.39147078332e-05 -2.93738313289e-05 0.800320593667)
(3.1412181205e-05 -3.32305224272e-05 0.800354282275)
(4.30722316938e-05 -3.8753593827e-05 0.800361857988)
(4.99190091575e-05 -4.71669801679e-05 0.800362594596)
(6.27543169567e-05 -5.75801643168e-05 0.800363088109)
(6.71345421935e-05 -7.04497967482e-05 0.800361605061)
(8.01966923768e-05 -8.86077586957e-05 0.800362680426)
(7.84980163641e-05 -0.000103467470514 0.800359604723)
(8.62319407687e-05 -0.000134245526684 0.800362500421)
(7.51639824883e-05 -0.000139619937666 0.800356751358)
(6.32485011507e-05 -0.000184967543718 0.800361812183)
(4.74257888397e-05 -0.000164784134633 0.800354220861)
(-1.19064696275e-05 -0.00020248901701 0.800357629964)
(3.94559274328e-06 -2.56772643206e-05 0.797400834079)
(1.07531547407e-05 -2.71675010122e-05 0.800126131281)
(1.87790573721e-05 -2.85104136242e-05 0.800320940264)
(2.57215592615e-05 -3.23833939194e-05 0.800354729976)
(3.31972378111e-05 -3.67791690926e-05 0.800362085108)
(3.9973990221e-05 -4.56151884911e-05 0.800363146574)
(4.55174389433e-05 -5.27313290347e-05 0.800362981375)
(5.16809618251e-05 -6.80050696946e-05 0.800362523219)
(5.2510375604e-05 -7.72579550061e-05 0.800361867056)
(5.66505112505e-05 -0.000101347966617 0.800361620785)
(4.8515438995e-05 -0.000110494583236 0.800360514939)
(4.68610305867e-05 -0.000143251094608 0.800360753422)
(2.85532603155e-05 -0.000148453162572 0.800359379337)
(1.46265880373e-05 -0.000179576834731 0.800359114258)
(-5.94423015318e-06 -0.000181558090191 0.800358896092)
(3.80289671843e-06 -2.37290794755e-05 0.797401638462)
(9.36241970759e-06 -2.49524391868e-05 0.800126800957)
(1.68681504552e-05 -2.62849932029e-05 0.800321528634)
(2.22037913173e-05 -2.9072206001e-05 0.800355248176)
(2.95006243113e-05 -3.31415900954e-05 0.800362673216)
(3.38852264412e-05 -3.89213403372e-05 0.800363567713)
(4.03515356338e-05 -4.59770794987e-05 0.80036366926)
(4.26150857908e-05 -5.4157037855e-05 0.800362741284)
(4.68870608604e-05 -6.48144188033e-05 0.800362855436)
(4.53347375109e-05 -7.37899048589e-05 0.80036142221)
(4.45160077988e-05 -8.84667422423e-05 0.800362082749)
(3.7616006128e-05 -9.39249970225e-05 0.800359991589)
(2.74742318301e-05 -0.000110739792154 0.800361302506)
(1.50373572481e-05 -0.000107159279829 0.800358873271)
(-6.11383675224e-06 -0.000118847662518 0.800360195716)
(2.85915580869e-06 -2.17555582115e-05 0.797401915735)
(7.65255910241e-06 -2.27570766676e-05 0.800127127452)
(1.33356362611e-05 -2.37224233873e-05 0.800321738547)
(1.80904030551e-05 -2.63870241378e-05 0.80035544333)
(2.30749472899e-05 -2.9524506861e-05 0.800362759068)
(2.70794608586e-05 -3.52602237041e-05 0.800363781371)
(3.0281845417e-05 -4.01403170749e-05 0.80036363638)
(3.28589314891e-05 -4.90430189147e-05 0.800363078755)
(3.29019039265e-05 -5.51516710373e-05 0.800362628139)
(3.30328522436e-05 -6.72174619363e-05 0.800362072798)
(2.8440774127e-05 -7.33494463381e-05 0.800361619132)
(2.46815411838e-05 -8.69060085683e-05 0.800361172614)
(1.53866272964e-05 -9.09251746175e-05 0.800360852263)
(6.65550958385e-06 -0.000100936250089 0.800360410257)
(-4.29021889958e-06 -0.000100303390227 0.800360507725)
(2.70456127515e-06 -1.80435434327e-05 0.797402620594)
(6.70091749438e-06 -1.88777536297e-05 0.800127471149)
(1.19196348249e-05 -1.98412611281e-05 0.800321214894)
(1.57492897533e-05 -2.162286872e-05 0.800354539557)
(2.04286149067e-05 -2.42502167554e-05 0.800361762581)
(2.32654750356e-05 -2.78384988663e-05 0.800362691241)
(2.66241356923e-05 -3.21263224805e-05 0.80036261647)
(2.76763417803e-05 -3.69822164441e-05 0.80036190536)
(2.87947078643e-05 -4.28529418565e-05 0.800361656419)
(2.72216725585e-05 -4.80222948009e-05 0.800360780466)
(2.49138484593e-05 -5.5055334773e-05 0.800360731807)
(2.01246029197e-05 -5.86507900054e-05 0.800359760323)
(1.35087975579e-05 -6.54000564243e-05 0.80035998075)
(5.70892319928e-06 -6.52164965643e-05 0.800359036197)
(-4.09837935597e-06 -6.89836892438e-05 0.800359480248)
(2.18937361994e-06 -1.49724528264e-05 0.797402709914)
(5.64439779101e-06 -1.55070995981e-05 0.800125738385)
(9.89335180327e-06 -1.61501762703e-05 0.80031580104)
(1.33128075337e-05 -1.77539513858e-05 0.800347787443)
(1.68634070503e-05 -1.96750774387e-05 0.800354547637)
(1.93791786406e-05 -2.30199934418e-05 0.800355411962)
(2.13961343514e-05 -2.59045446809e-05 0.800355237445)
(2.24232586819e-05 -3.07935598914e-05 0.800354644683)
(2.21790898813e-05 -3.42614165976e-05 0.800354226809)
(2.11498951406e-05 -4.03266912699e-05 0.800353613845)
(1.8116360437e-05 -4.36692160368e-05 0.800353263699)
(1.46020214168e-05 -4.97641117877e-05 0.80035274748)
(9.01487824084e-06 -5.18099849005e-05 0.800352551299)
(3.17684829645e-06 -5.57997206328e-05 0.80035217383)
(-3.46478475476e-06 -5.5142512383e-05 0.800352215211)
(2.08955522219e-06 -1.02825725924e-05 0.797399459445)
(5.15414990405e-06 -1.06954748676e-05 0.800110340753)
(9.20526130374e-06 -1.13726389846e-05 0.800287996923)
(1.22084754948e-05 -1.2253315687e-05 0.800315784384)
(1.56024701256e-05 -1.36323949838e-05 0.800321198486)
(1.76487399215e-05 -1.54113348775e-05 0.800321681816)
(1.96697374782e-05 -1.76020974761e-05 0.800321468169)
(2.01819840197e-05 -1.9961038075e-05 0.800320811308)
(2.02456416216e-05 -2.2832512272e-05 0.800320451708)
(1.87671094675e-05 -2.52630823545e-05 0.800319752874)
(1.64218295961e-05 -2.84921539508e-05 0.800319496825)
(1.27816475215e-05 -3.01662504201e-05 0.800318864442)
(8.07019653318e-06 -3.30262174548e-05 0.800318774684)
(2.69228118593e-06 -3.30782914477e-05 0.800318296227)
(-3.33433537093e-06 -3.45235741827e-05 0.800318397066)
(2.01498610424e-06 -6.61822794872e-06 0.79729564814)
(4.89329559553e-06 -6.79620230749e-06 0.799975324933)
(8.76990967714e-06 -7.2136629223e-06 0.800110347468)
(1.13524585058e-05 -7.89692484468e-06 0.800125720572)
(1.45632956818e-05 -8.68330060587e-06 0.800127468168)
(1.62730369587e-05 -1.01781822397e-05 0.800127072771)
(1.80893849731e-05 -1.12931550373e-05 0.800126771924)
(1.84157215906e-05 -1.35110359892e-05 0.800126018455)
(1.82818365767e-05 -1.4756765126e-05 0.800125707275)
(1.6850099442e-05 -1.75116135769e-05 0.800124963068)
(1.44814081904e-05 -1.85597533611e-05 0.800124738786)
(1.11743130506e-05 -2.1352031053e-05 0.80012410583)
(6.85299230104e-06 -2.17402510404e-05 0.800124023771)
(2.07037315189e-06 -2.37237846142e-05 0.800123575635)
(-3.15773799171e-06 -2.29643521603e-05 0.800123669067)
(2.09963857937e-06 -1.87956624293e-06 0.793914138993)
(4.67257926554e-06 -1.9547826683e-06 0.797295637633)
(8.71274145507e-06 -2.14477208804e-06 0.797399467747)
(1.07869245328e-05 -2.19488420339e-06 0.797402672848)
(1.42545476592e-05 -2.48534971568e-06 0.797402625592)
(1.54437179728e-05 -2.60944512077e-06 0.797401830006)
(1.75849910296e-05 -3.08989520021e-06 0.79740162306)
(1.74376357669e-05 -3.17762572506e-06 0.797400672239)
(1.76861583111e-05 -3.86387196103e-06 0.797400521065)
(1.58963761663e-05 -3.77841484611e-06 0.797399553238)
(1.39468479609e-05 -4.64907131578e-06 0.797399517851)
(1.04941522466e-05 -4.26609918503e-06 0.797398645637)
(6.54783580719e-06 -5.21056110663e-06 0.797398767339)
(1.89206833692e-06 -4.51876870868e-06 0.797398091658)
(-3.12508889568e-06 -5.34325201218e-06 0.797398383)
(9.9418938551e-06 -7.64477219011e-06 0.797375006075)
(2.12149638088e-05 -8.11836629728e-06 0.800100551904)
(4.38768008061e-05 -7.80210672155e-06 0.800296047919)
(5.5775345508e-05 -1.12880723231e-05 0.800327505258)
(8.71020851478e-05 -1.14978956666e-05 0.800333561683)
(0.000101440816179 -2.43519488779e-05 0.800326240125)
(0.000160639160087 -2.04284229115e-05 0.800325458539)
(0.000174427275653 -6.80246993674e-05 0.800296829407)
(0.000323158344313 -3.82734878463e-05 0.800303200579)
(0.00029980211302 -0.000248985871981 0.800188485043)
(0.000832432655811 0.000178735945719 0.800346863773)
(0.00019780377311 7.69331953629e-06 0.800263810189)
(0 -0 0)
(0 -0 -0)
(0 0 0)
(9.03425401916e-06 -1.0266520485e-05 0.797375183979)
(2.01931639512e-05 -1.15453774845e-05 0.800100890931)
(4.02686177431e-05 -1.28057988738e-05 0.800296302941)
(5.2571966561e-05 -1.51885516998e-05 0.800328320327)
(7.67419528649e-05 -1.88795723386e-05 0.800333753296)
(9.39441983328e-05 -2.59387424505e-05 0.800329309792)
(0.000123935382383 -3.51378603855e-05 0.800324658608)
(0.000157322618349 -5.70534614936e-05 0.800311560152)
(0.000170914731811 -7.91459252475e-05 0.800295455121)
(0.000271581335588 -0.000167003566855 0.800270590169)
(7.66076579514e-05 -0.000186668952696 0.800198785594)
(0.000807343922853 -0.000494233034663 0.800416898111)
(5.83236795285e-05 -0.000136696861227 0.80023921002)
(0 -0 0)
(0 -0 0)
(9.30449720045e-06 -1.76893612665e-05 0.79737567491)
(1.90598842842e-05 -1.9187110427e-05 0.800101346937)
(3.95688759981e-05 -1.984086122e-05 0.800296946979)
(4.9172787386e-05 -2.49832146187e-05 0.800328786758)
(7.61432026861e-05 -2.86568464927e-05 0.800335106084)
(8.51482595951e-05 -4.26289565192e-05 0.800329421441)
(0.000129607424132 -4.98134883378e-05 0.800328889763)
(0.000130720166912 -8.0176507331e-05 0.800308917349)
(0.000212998052431 -9.77781765307e-05 0.800314044282)
(0.000175189800012 -0.000147504405889 0.800252439667)
(0.000316968320761 -0.00022316003543 0.8002869301)
(0.00015620421414 -0.000178817401005 0.80012365185)
(0.000377293229603 -0.000722295516282 0.800382120661)
(0.000124529291883 -4.68505510676e-05 0.80027658093)
(7.04057105347e-06 -0.000118802232937 0.800247590889)
(7.10333881769e-06 -1.95080682177e-05 0.797376294956)
(1.68755475623e-05 -2.16595282379e-05 0.800102222111)
(3.21238707634e-05 -2.30449339065e-05 0.80029769179)
(4.28359855472e-05 -2.80298324598e-05 0.800330486476)
(5.8758715049e-05 -3.21982664193e-05 0.800336126328)
(7.27295960576e-05 -4.57770235466e-05 0.800334328874)
(8.6493695338e-05 -5.26774375074e-05 0.800330170206)
(0.00010990264754 -8.50294805598e-05 0.800325446617)
(0.000105488947061 -9.16259577394e-05 0.800314430008)
(0.000154265214866 -0.000170866221108 0.800313495691)
(8.28750197542e-05 -0.000153725784931 0.800278579852)
(0.000173948311125 -0.000334257454088 0.800316663685)
(4.35754076969e-06 -0.000193288710519 0.800224492941)
(-0.000149682129393 -0.000616555200846 0.800479378588)
(1.90757886391e-06 -0.000826966189085 0.800358132738)
(7.55881641258e-06 -2.35442403721e-05 0.797377009487)
(1.5606549688e-05 -2.53869442717e-05 0.800102908086)
(3.1460094312e-05 -2.66422746651e-05 0.800298597616)
(3.91106920981e-05 -3.1401057717e-05 0.800331193717)
(5.80371271133e-05 -3.63289013811e-05 0.800337671991)
(6.45965686292e-05 -4.72696552201e-05 0.800334704398)
(9.04112177038e-05 -5.73130927928e-05 0.800333641458)
(9.21314589611e-05 -7.48460909544e-05 0.800323493114)
(0.000128258695205 -9.6578391126e-05 0.80032403033)
(0.000116592275852 -0.000112970018183 0.800300841489)
(0.000158405866014 -0.000167476655104 0.800308348198)
(0.000127587223169 -0.000140072749944 0.800260365458)
(0.000142292838775 -0.000272042494013 0.80028228146)
(0.000166062853304 -0.000142509655163 0.800209959891)
(-2.84838318327e-05 -0.000269988118922 0.800200412695)
(5.29916372794e-06 -2.43601610307e-05 0.797377858411)
(1.30282895106e-05 -2.65037709278e-05 0.800103976816)
(2.39969194475e-05 -2.7785771613e-05 0.800299595167)
(3.21266049212e-05 -3.28568339379e-05 0.800332944646)
(4.2509829568e-05 -3.68968438408e-05 0.800339125752)
(5.16553735059e-05 -4.94172450486e-05 0.80033872262)
(5.89115111046e-05 -5.55273404983e-05 0.800336024676)
(7.07266277338e-05 -8.04746378969e-05 0.800333810614)
(6.75970422751e-05 -8.65705608877e-05 0.800328052185)
(8.44652169812e-05 -0.000133825897327 0.800328208896)
(5.83581144984e-05 -0.000132613349107 0.800315887921)
(7.69023513803e-05 -0.000213461539448 0.800327108163)
(2.98252133855e-05 -0.000193973931197 0.800303573495)
(1.75915287259e-05 -0.000305195925574 0.800335959823)
(-6.32609220155e-06 -0.000335062701602 0.800311514192)
(5.60697765867e-06 -2.48826440061e-05 0.797378670476)
(1.19522384321e-05 -2.66382973629e-05 0.80010477995)
(2.31479396161e-05 -2.80070429886e-05 0.800300559551)
(2.90357014775e-05 -3.17392321877e-05 0.800333796501)
(4.11027772136e-05 -3.61711873896e-05 0.80034050856)
(4.58748608626e-05 -4.40132756729e-05 0.800339483587)
(5.93414818078e-05 -5.23292405466e-05 0.800338399234)
(6.11341829962e-05 -6.32559419094e-05 0.800333622494)
(7.50102763658e-05 -7.81941966146e-05 0.800332503083)
(7.09793824736e-05 -8.74203136843e-05 0.800323939834)
(7.97869824337e-05 -0.000114836377039 0.800324199648)
(6.88999074382e-05 -0.000108705595212 0.800310618049)
(5.81919568198e-05 -0.000154051795688 0.800312954837)
(4.71306579295e-05 -0.000120599758281 0.800297463628)
(-1.05832562618e-05 -0.000165171480227 0.80029815536)
(3.86775594971e-06 -2.45991921937e-05 0.797379535329)
(9.63533950121e-06 -2.62838127685e-05 0.800105797276)
(1.73296666043e-05 -2.7326115515e-05 0.800301565321)
(2.30826185356e-05 -3.13401646476e-05 0.800335256444)
(2.99038640247e-05 -3.47710258686e-05 0.800341925711)
(3.54139245049e-05 -4.39244369056e-05 0.800342241717)
(3.96526581004e-05 -4.90521402128e-05 0.800340684865)
(4.48621744443e-05 -6.4946832732e-05 0.800339321003)
(4.34137125443e-05 -7.07276427157e-05 0.80033637365)
(4.78929985502e-05 -9.56989375808e-05 0.800335867969)
(3.71683282548e-05 -9.97981191213e-05 0.800331139302)
(3.83307770114e-05 -0.000133687587553 0.800333717818)
(1.99904166457e-05 -0.000133712546247 0.800326819395)
(1.07503422161e-05 -0.000166493832454 0.800333929898)
(-5.03499756718e-06 -0.000167005893298 0.800327021405)
(3.97415392476e-06 -2.23688966373e-05 0.797380320515)
(8.80242041651e-06 -2.38066092873e-05 0.800106580838)
(1.63915540752e-05 -2.49944018612e-05 0.800302426759)
(2.07684916821e-05 -2.76388639691e-05 0.800336060044)
(2.82092209688e-05 -3.09472476176e-05 0.800343013223)
(3.15190246568e-05 -3.62401653215e-05 0.800343084002)
(3.83052675126e-05 -4.19559499398e-05 0.800342269428)
(3.94576649673e-05 -4.89219222823e-05 0.80033995583)
(4.4259339373e-05 -5.77495360564e-05 0.800338764124)
(4.19301811644e-05 -6.4001232375e-05 0.800335397453)
(4.18446109123e-05 -7.70035563959e-05 0.800334447599)
(3.51706142282e-05 -7.77503019402e-05 0.800330294233)
(2.58266457321e-05 -9.45274433774e-05 0.800329908049)
(1.47816804655e-05 -8.58752787475e-05 0.800326414513)
(-5.72085851532e-06 -0.000100354932331 0.800326684327)
(2.84537468647e-06 -2.10006858508e-05 0.797381052439)
(7.0725496121e-06 -2.21182206855e-05 0.800107379543)
(1.24811555515e-05 -2.28701910594e-05 0.800303109199)
(1.64858716726e-05 -2.56270988333e-05 0.800336911222)
(2.10624548491e-05 -2.81834010056e-05 0.800343882909)
(2.43522259728e-05 -3.41155564996e-05 0.800344574697)
(2.69701990426e-05 -3.78804197917e-05 0.800343706039)
(2.90798491811e-05 -4.7185069791e-05 0.800342750501)
(2.83490289515e-05 -5.153678597e-05 0.800341178972)
(2.86559305382e-05 -6.42761673229e-05 0.800340477561)
(2.34380302092e-05 -6.81080566605e-05 0.800338445622)
(2.0853663548e-05 -8.26778143189e-05 0.800338690628)
(1.19556684741e-05 -8.44543988513e-05 0.800336351375)
(5.07411315989e-06 -9.58349313554e-05 0.800337911938)
(-4.00133366419e-06 -9.38788421414e-05 0.800335875935)
(2.82182011688e-06 -1.69687033344e-05 0.797381687111)
(6.44891732571e-06 -1.79800511173e-05 0.800107767637)
(1.16203565379e-05 -1.88951618966e-05 0.800302743097)
(1.48757201178e-05 -2.05697307307e-05 0.8003361877)
(1.9539440247e-05 -2.27270126475e-05 0.800343187456)
(2.18174309122e-05 -2.59836859454e-05 0.800343776859)
(2.52846948726e-05 -2.94756736511e-05 0.800343227185)
(2.58650159773e-05 -3.36523803668e-05 0.800341979427)
(2.72393664115e-05 -3.84995587851e-05 0.800341060626)
(2.54308149615e-05 -4.24193854296e-05 0.800339526852)
(2.35134391658e-05 -4.85345597858e-05 0.800338679858)
(1.88917368633e-05 -5.02918077262e-05 0.800337164227)
(1.27290457558e-05 -5.68245141963e-05 0.800336613161)
(5.40512635363e-06 -5.48485705712e-05 0.800335647665)
(-3.97236552632e-06 -5.95196850086e-05 0.80033563838)
(2.22087402862e-06 -1.46575937967e-05 0.797382049165)
(5.38811020022e-06 -1.52414367677e-05 0.800106297996)
(9.41829336973e-06 -1.57599864387e-05 0.800297560199)
(1.235756695e-05 -1.74301328124e-05 0.800329747141)
(1.56538343946e-05 -1.9053904591e-05 0.80033635574)
(1.77553599227e-05 -2.25161705054e-05 0.800337089276)
(1.95256620208e-05 -2.48359099091e-05 0.80033655627)
(2.03072670503e-05 -2.99502868607e-05 0.800335802822)
(1.98549410715e-05 -3.25845849863e-05 0.800334864604)
(1.88960110257e-05 -3.90276566719e-05 0.800334176614)
(1.58236927817e-05 -4.13521032715e-05 0.800333161133)
(1.27904187378e-05 -4.80045753205e-05 0.800332836002)
(7.56230345994e-06 -4.90701128749e-05 0.800331903569)
(2.46835599792e-06 -5.37792822584e-05 0.800332114786)
(-3.36408324158e-06 -5.23709223594e-05 0.800331496375)
(2.15402364585e-06 -9.66653667581e-06 0.797378719944)
(4.98666400058e-06 -1.02084231184e-05 0.800090832914)
(8.91978335009e-06 -1.09201664407e-05 0.800269593482)
(1.15539754696e-05 -1.1735014176e-05 0.800297557915)
(1.48533940363e-05 -1.28686320082e-05 0.80030285988)
(1.65719104585e-05 -1.44219203239e-05 0.800303228248)
(1.85881386243e-05 -1.61859923195e-05 0.800302751965)
(1.88744245301e-05 -1.81274561073e-05 0.800301907788)
(1.90465790462e-05 -2.04686893452e-05 0.800301190382)
(1.75099687187e-05 -2.22331512296e-05 0.80030029266)
(1.53900123479e-05 -2.5002837009e-05 0.80029963031)
(1.18944466741e-05 -2.58138726935e-05 0.800298889046)
(7.49888177498e-06 -2.8546063209e-05 0.800298435438)
(2.39525138537e-06 -2.78217033873e-05 0.800298067942)
(-3.27546516681e-06 -2.96334042889e-05 0.800297971579)
(2.03700198438e-06 -6.70568480455e-06 0.79727499065)
(4.67772970851e-06 -6.91805365048e-06 0.799955508104)
(8.36938015191e-06 -7.34021472329e-06 0.800090889747)
(1.05607270781e-05 -8.09636196468e-06 0.800106349913)
(1.35853504606e-05 -8.7721551955e-06 0.800107971935)
(1.49517489906e-05 -1.03721612444e-05 0.800107586789)
(1.66413046776e-05 -1.1251756287e-05 0.800107045072)
(1.67625022626e-05 -1.36560969817e-05 0.800106292323)
(1.66003922217e-05 -1.4549610707e-05 0.80010563805)
(1.51876616055e-05 -1.76014970212e-05 0.800104933389)
(1.2951388456e-05 -1.82127614336e-05 0.80010429592)
(9.91727910235e-06 -2.14091854487e-05 0.800103823092)
(5.95509150132e-06 -2.13453198023e-05 0.800103322878)
(1.59980018841e-06 -2.37847036232e-05 0.800103213959)
(-3.06621315853e-06 -2.25954833784e-05 0.800102974231)
(2.0717775424e-06 -1.61617732421e-06 0.793893456039)
(4.38808720003e-06 -1.75473530255e-06 0.797274976992)
(8.27351506847e-06 -1.96905926122e-06 0.797378785335)
(9.97804139644e-06 -1.95799670283e-06 0.797382076124)
(1.32906927462e-05 -2.18619744683e-06 0.797381894552)
(1.41341403519e-05 -2.14243218839e-06 0.797381198249)
(1.62024762891e-05 -2.52319800918e-06 0.79738075175)
(1.58396851476e-05 -2.30997452617e-06 0.797379903093)
(1.61428514307e-05 -2.90597154875e-06 0.797379411391)
(1.43461310291e-05 -2.36085489777e-06 0.797378574904)
(1.26124858257e-05 -3.22696409308e-06 0.797378127007)
(9.37119552024e-06 -2.25997912971e-06 0.797377479088)
(5.8167618147e-06 -3.37287652303e-06 0.797377177134)
(1.48308667079e-06 -2.11617898998e-06 0.797376872355)
(-2.99988673526e-06 -3.32267415155e-06 0.797376818863)
(8.05581141009e-06 -5.71808984457e-06 0.79736543385)
(2.12332575582e-05 -6.07845934955e-06 0.800089281053)
(3.87940691061e-05 -6.36391883792e-06 0.800283200731)
(5.35388124207e-05 -7.91246120224e-06 0.800313076805)
(7.51131129576e-05 -9.49891110307e-06 0.800317047267)
(9.6627893549e-05 -1.38131189223e-05 0.80030713628)
(0.000127268564096 -1.84048207747e-05 0.800300769384)
(0.00016776760265 -2.81532676069e-05 0.800271759543)
(0.000209211336749 -4.71501445534e-05 0.800261300827)
(0.00031458380168 -5.98132719847e-05 0.800172825186)
(0.000317893165146 -0.000156551009677 0.800171640698)
(0.000763331865895 4.56123789756e-05 0.799883990624)
(-1.58983343316e-05 2.39521687085e-05 0.800214483044)
(0 0 0)
(0 -0 0)
(7.54566283395e-06 -9.6589802297e-06 0.797366007401)
(2.02916968503e-05 -1.0651430532e-05 0.800090031474)
(3.65680979585e-05 -1.18184953314e-05 0.800283891169)
(5.06914126282e-05 -1.38161149573e-05 0.800314584791)
(6.97965008945e-05 -1.75005957164e-05 0.800318318311)
(8.9200603759e-05 -2.26958095283e-05 0.800312040977)
(0.000114220551071 -3.22364633989e-05 0.800303594759)
(0.0001440176254 -4.3757065099e-05 0.80029115682)
(0.000178142269843 -7.17914125738e-05 0.800267683277)
(0.000215973544202 -9.56302470421e-05 0.80026176892)
(0.000278968652555 -0.000197187938549 0.800177251699)
(0.000229219351021 -0.000202598326589 0.800292039321)
(0.000797229481013 -0.000739034950298 0.799752424625)
(7.82815862471e-05 -0.000112018820845 0.800226322012)
(-2.74617499337e-05 -0.000134028280812 0.800176859883)
(7.44580561263e-06 -1.56235041346e-05 0.79736656086)
(1.90523929126e-05 -1.67037272771e-05 0.800090617192)
(3.49121036969e-05 -1.78170788856e-05 0.800284789601)
(4.73274242723e-05 -2.12315760281e-05 0.800315153686)
(6.60337553918e-05 -2.58175680385e-05 0.800320043922)
(8.18571407608e-05 -3.44681873703e-05 0.800311917605)
(0.000106236647312 -4.46366898863e-05 0.800308330946)
(0.000128496830643 -6.2115090293e-05 0.800286869625)
(0.000157560737224 -8.45741590548e-05 0.800285076219)
(0.000189682573674 -0.000119095709522 0.800236027718)
(0.000201822445655 -0.000163468117299 0.800251858898)
(0.000234926911036 -0.000243804879141 0.800148711535)
(0.000170677130404 -0.000242037802545 0.800242568507)
(5.05634803602e-06 -0.000817881213704 0.799959911049)
(-6.79439233468e-06 -0.000883457653671 0.799852650297)
(6.27541266982e-06 -1.83627196983e-05 0.797367985153)
(1.70409736192e-05 -1.98793427564e-05 0.800092316198)
(3.0286182842e-05 -2.14323076559e-05 0.800286273918)
(4.18202756446e-05 -2.51019518625e-05 0.800318041014)
(5.62448959741e-05 -3.03444663927e-05 0.800322387466)
(7.02998579174e-05 -3.94239267606e-05 0.800319264895)
(8.65267511706e-05 -5.04962007474e-05 0.800312353909)
(0.000104280463135 -6.82273108505e-05 0.800307266535)
(0.000121746443161 -9.10209057206e-05 0.800290612407)
(0.000139518864591 -0.000122558311831 0.800294065555)
(0.000159539977969 -0.000170244109462 0.800251487377)
(0.000152927714893 -0.000209312213567 0.800294221505)
(0.00019363947637 -0.000293265191274 0.800192559584)
(0.000149884740934 -0.000302417411061 0.800311495584)
(-4.09538077692e-05 -0.000374142962981 0.800202721559)
(6.13280918371e-06 -2.17590350507e-05 0.797368717686)
(1.53941397691e-05 -2.31122004076e-05 0.800093138243)
(2.8033855261e-05 -2.45501308042e-05 0.800287512315)
(3.7458701676e-05 -2.83440787327e-05 0.800318885094)
(5.13509825474e-05 -3.37197757531e-05 0.800324437925)
(6.15845769739e-05 -4.26082954768e-05 0.800319440783)
(7.73891229227e-05 -5.32319301132e-05 0.800316810797)
(8.7925890274e-05 -6.90113843366e-05 0.800304284219)
(0.000103546872133 -8.82118158291e-05 0.800302105251)
(0.000111392714549 -0.000114694388815 0.800278985043)
(0.00011679893134 -0.000145343266728 0.800281772812)
(0.000112685254125 -0.000191088499163 0.800243252715)
(8.74931107809e-05 -0.000220596522534 0.800254917518)
(5.66372578473e-05 -0.000321724296047 0.800202238809)
(-1.26214623454e-05 -0.000351466671216 0.80017796546)
(4.83149032798e-06 -2.28843905017e-05 0.797370531044)
(1.31124897385e-05 -2.44033413583e-05 0.800095161636)
(2.30569717521e-05 -2.58633713846e-05 0.800289343587)
(3.15935293791e-05 -2.97085398841e-05 0.800321896894)
(4.15975698958e-05 -3.470158725e-05 0.800327187917)
(5.06874626915e-05 -4.36554053547e-05 0.800325830539)
(6.01231446864e-05 -5.28122759733e-05 0.800321428311)
(6.93372670554e-05 -6.84869346701e-05 0.800318554149)
(7.62772126427e-05 -8.33672009006e-05 0.800309517683)
(8.2681316245e-05 -0.000107824543155 0.800310530398)
(8.37270247526e-05 -0.000129783684109 0.800292807437)
(7.8921237739e-05 -0.000160087580993 0.800306232065)
(6.87709915805e-05 -0.000185558469475 0.800275210624)
(4.51553984428e-05 -0.000207071395479 0.800306081482)
(-1.22421280009e-05 -0.000224763176293 0.800273198822)
(4.63970706931e-06 -2.34820035298e-05 0.797371344898)
(1.15632280688e-05 -2.47659487538e-05 0.800096108142)
(2.0830787138e-05 -2.61278606174e-05 0.800290639826)
(2.75946801142e-05 -2.94069680344e-05 0.800322939531)
(3.70244060622e-05 -3.41199970002e-05 0.800329032403)
(4.33601362588e-05 -4.13408067001e-05 0.80032656405)
(5.25244813897e-05 -4.98604174979e-05 0.800324600078)
(5.72917081179e-05 -6.13095724784e-05 0.800317864199)
(6.42265519428e-05 -7.47229967167e-05 0.800315551527)
(6.49325143105e-05 -9.08492803247e-05 0.800305115986)
(6.47001279808e-05 -0.000109389389297 0.800303826726)