/*--------------------------------*- C++ -*----------------------------------*\
| =========                 |                                                 |
| \\      /  F ield         | OpenFOAM: The Open Source CFD Toolbox           |
|  \\    /   O peration     | Version:  2406                                  |
|   \\  /    A nd           | Website:  www.openfoam.com                      |
|    \\/     M anipulation  |                                                 |
\*---------------------------------------------------------------------------*/
FoamFile
{
    version     2.0;
    format      ascii;
    arch        "LSB;label=32;scalar=64";
    class       volScalarField;
    location    "0.01";
    object      k;
}
// * * * * * * * * * * * * * * * * * * * * * * * * * * * * * * * * * * * * * //

dimensions      [0 2 -2 0 0 0 0];

internalField   nonuniform List<scalar> 
29768
(
0.237387231388
0.237410291106
0.23741792782
0.237418107988
0.237418111488
0.237418111544
0.237418111607
0.237418087897
0.237418111249
0.237418111335
0.237418111189
0.237418111056
0.23741811084
0.237418086974
0.237418131329
0.237410289003
0.239832388311
0.239878139709
0.23987925088
0.239879274838
0.239879275442
0.23987927612
0.239879275746
0.239879275698
0.239879275915
0.239879275747
0.239879275179
0.239879275854
0.239879276189
0.239879306658
0.237417927745
0.239878140561
0.239950904166
0.23995404316
0.239954172569
0.239954176626
0.239954176732
0.239954176727
0.239954176728
0.239954176731
0.239954176727
0.239954176724
0.239954176755
0.239954177616
0.239954201371
0.237418107978
0.23987925177
0.239954043167
0.239957456323
0.239957604972
0.239957609864
0.239957609992
0.239957609994
0.239957609994
0.239957609994
0.239957609993
0.239957609995
0.239957610022
0.239957610893
0.239957632995
0.237418111503
0.239879275727
0.239954172576
0.239957604973
0.239957755025
0.23995775998
0.239957760109
0.239957760111
0.239957760112
0.239957760112
0.239957760112
0.239957760114
0.239957760142
0.239957761011
0.23995778298
0.23741811156
0.239879276089
0.239954176632
0.239957609864
0.23995775998
0.239957764937
0.239957765066
0.239957765069
0.239957765071
0.23995776507
0.239957765071
0.239957765072
0.239957765097
0.23995776593
0.239957787877
0.237418087772
0.239879275721
0.239954176727
0.239957609992
0.239957760109
0.239957765066
0.239957765196
0.239957765199
0.239957765201
0.239957765201
0.239957765201
0.239957765189
0.239957765011
0.239957763586
0.239957784772
0.237418111166
0.239879275247
0.239954176727
0.239957609994
0.239957760111
0.239957765069
0.239957765199
0.239957765202
0.239957765203
0.239957765201
0.239957765183
0.239957764638
0.239957755042
0.239957644996
0.239957637458
0.237418111251
0.239879275908
0.239954176732
0.239957609994
0.239957760112
0.239957765071
0.239957765201
0.239957765203
0.239957765201
0.239957765174
0.239957764238
0.239957742952
0.239957365327
0.239953222293
0.239952379834
0.237418111118
0.239879275919
0.239954176731
0.239957609994
0.239957760112
0.23995776507
0.239957765201
0.239957765204
0.239957765174
0.239957764163
0.239957734234
0.239957123298
0.239947133461
0.239759432779
0.239731571645
0.237418087188
0.239879275072
0.23995417672
0.239957609993
0.239957760112
0.23995776507
0.2399577652
0.239957765179
0.239957764382
0.239957733016
0.239957043542
0.239944840692
0.239654356393
0.213475363416
0.210518758301
0.237418088126
0.239879275721
0.239954176727
0.239957609995
0.239957760113
0.239957765072
0.239957765188
0.239957764567
0.239957740252
0.239957116594
0.239945323685
0.239657699099
0.215640966593
0.0115767135636
0.0428222542751
0.237418109704
0.239879275159
0.23995417675
0.239957610023
0.239957760141
0.239957765096
0.239957764959
0.23995775322
0.239957353523
0.239948299774
0.239711981539
0.217810238912
0.000416959449937
0.00190790049216
0.00648077924252
0.237418111422
0.2398792758
0.239954177615
0.239957610894
0.23995776101
0.239957765927
0.239957764068
0.239957633793
0.2399537782
0.239829332951
0.229583018966
0.00471819120164
0.0213736647793
0.239989670583
0.24
0.237418107688
0.239879307153
0.239954201373
0.239957632996
0.239957782978
0.239957787796
0.239957781691
0.23995750611
0.239949800783
0.239694194598
0.220500762682
0.0242793112503
0.239987432411
0.24
0.24
0.237387005805
0.237410044402
0.237417682914
0.237417863359
0.237417866325
0.23741786637
0.23741786638
0.237417866267
0.237417866401
0.237417866397
0.237417866392
0.237417866384
0.237417866378
0.237417866259
0.237417886502
0.2374100444
0.239832363114
0.239878120565
0.239879231944
0.239879255881
0.239879256315
0.239879256318
0.239879256305
0.239879256298
0.239879256287
0.239879256274
0.239879256263
0.239879256263
0.239879256759
0.239879287684
0.237417682918
0.239878120564
0.239950892428
0.239954032172
0.23995416163
0.239954165687
0.239954165788
0.239954165788
0.239954165788
0.239954165788
0.239954165786
0.239954165787
0.239954165813
0.239954166676
0.239954190401
0.237417863371
0.239879231944
0.239954032171
0.239957446229
0.239957594942
0.239957599837
0.239957599964
0.239957599966
0.239957599967
0.239957599967
0.239957599966
0.239957599968
0.239957599996
0.239957600865
0.239957622937
0.237417866352
0.239879255892
0.239954161631
0.239957594942
0.23995774506
0.239957750018
0.239957750147
0.23995775015
0.23995775015
0.239957750151
0.23995775015
0.239957750152
0.23995775018
0.239957751048
0.23995777299
0.23741786641
0.239879256316
0.239954165687
0.239957599837
0.239957750018
0.239957754979
0.239957755108
0.23995775511
0.239957755111
0.239957755112
0.239957755112
0.239957755114
0.239957755142
0.239957756006
0.239957777942
0.23741786632
0.239879256325
0.239954165788
0.239957599964
0.239957750147
0.239957755108
0.239957755238
0.23995775524
0.239957755241
0.239957755242
0.239957755243
0.239957755245
0.239957755255
0.239957755924
0.239957777874
0.237417866454
0.239879256305
0.239954165789
0.239957599966
0.23995775015
0.23995775511
0.23995775524
0.239957755243
0.239957755245
0.239957755246
0.239957755246
0.239957755196
0.239957754303
0.239957741408
0.239957764963
0.237417866475
0.239879256299
0.239954165788
0.239957599967
0.23995775015
0.239957755111
0.239957755241
0.239957755245
0.239957755247
0.239957755247
0.239957755158
0.239957752539
0.239957702449
0.239957159581
0.239957280522
0.237417866489
0.239879256291
0.239954165788
0.239957599967
0.239957750151
0.239957755112
0.239957755242
0.239957755246
0.239957755248
0.239957755149
0.239957751691
0.239957667331
0.239956205059
0.239937021265
0.239942225015
0.237417866375
0.239879256275
0.239954165787
0.239957599966
0.23995775015
0.239957755112
0.239957755242
0.239957755246
0.239957755172
0.239957752041
0.239957662664
0.23995578393
0.239920640794
0.23893684619
0.239319690316
0.237417866288
0.23987925627
0.239954165788
0.239957599968
0.239957750152
0.239957755113
0.239957755244
0.239957755208
0.239957753249
0.239957688297
0.239956076185
0.239920535161
0.238708042055
0.0690571430516
0.222042358006
0.237417866402
0.239879256271
0.239954165813
0.239957599996
0.23995775018
0.239957755141
0.239957755258
0.239957754632
0.239957724565
0.239956846366
0.239933917569
0.238984508409
0.0297745715483
0.0311255328905
0.12876427321
0.237417866447
0.239879256771
0.239954166677
0.239957600865
0.239957751048
0.239957756007
0.239957755991
0.23995774892
0.239957518517
0.239951201033
0.239740025053
0.220953894446
0.0555102358251
0.239962074436
0.24
0.237417886466
0.23987928769
0.239954190401
0.239957622937
0.23995777299
0.239957777941
0.239957777848
0.239957765859
0.23995740757
0.239948509313
0.239682289782
0.213527684002
0.239986479957
0.24
0.24
0.237387002937
0.23741004167
0.237417680172
0.237417860593
0.237417863518
0.237417863523
0.237417863486
0.237417863452
0.237417863348
0.237417863239
0.237417863199
0.237417863162
0.237417863128
0.237417863125
0.237417883779
0.237410041672
0.239832362904
0.239878120369
0.23987923175
0.239879255683
0.239879256119
0.239879256116
0.239879256108
0.239879256095
0.239879256076
0.239879256065
0.239879256055
0.239879256052
0.23987925655
0.239879287488
0.237417680177
0.239878120369
0.239950892221
0.239954031964
0.239954161427
0.239954165486
0.239954165587
0.239954165587
0.239954165587
0.239954165586
0.239954165585
0.239954165585
0.239954165611
0.239954166474
0.239954190202
0.237417860533
0.239879231744
0.239954031963
0.239957446024
0.239957594741
0.239957599636
0.239957599764
0.239957599766
0.239957599766
0.239957599766
0.239957599766
0.239957599767
0.239957599795
0.239957600665
0.239957622738
0.237417863472
0.239879255685
0.239954161427
0.239957594741
0.23995774486
0.239957749818
0.239957749947
0.239957749949
0.23995774995
0.23995774995
0.23995774995
0.239957749951
0.239957749979
0.239957750848
0.239957772792
0.237417863485
0.239879256112
0.239954165485
0.239957599636
0.239957749818
0.239957754778
0.239957754908
0.23995775491
0.239957754911
0.239957754911
0.239957754911
0.239957754913
0.239957754941
0.23995775581
0.239957777749
0.23741786348
0.239879256125
0.239954165587
0.239957599764
0.239957749947
0.239957754908
0.239957755037
0.23995775504
0.239957755041
0.239957755042
0.239957755042
0.239957755044
0.239957755074
0.239957755978
0.239957777919
0.237417863396
0.239879256102
0.239954165587
0.239957599766
0.239957749949
0.23995775491
0.23995775504
0.239957755042
0.239957755044
0.239957755045
0.239957755046
0.239957755047
0.239957755093
0.239957754783
0.239957777045
0.237417863387
0.239879256088
0.239954165586
0.239957599766
0.23995774995
0.239957754911
0.239957755041
0.239957755044
0.239957755046
0.239957755048
0.239957755042
0.239957754745
0.239957751537
0.239957719991
0.239957760494
0.23741786338
0.239879256078
0.239954165586
0.239957599766
0.23995774995
0.239957754911
0.239957755042
0.239957755045
0.239957755049
0.239957755043
0.239957754654
0.239957748861
0.239957640194
0.239956453028
0.239957261593
0.237417863376
0.239879256066
0.239954165585
0.239957599766
0.23995774995
0.239957754911
0.239957755042
0.239957755047
0.239957755046
0.239957754682
0.239957748499
0.239957591209
0.239954688799
0.239909684851
0.23994592219
0.237417863899
0.23987925607
0.239954165586
0.239957599767
0.239957749951
0.239957754913
0.239957755045
0.239957755049
0.239957754843
0.239957750693
0.239957624304
0.239954507214
0.23987852446
0.236344271528
0.239739025507
0.237417863891
0.239879256071
0.239954165612
0.239957599795
0.23995774998
0.239957754942
0.239957755074
0.239957755067
0.239957753225
0.239957699228
0.239956020993
0.23989984513
0.235129762204
0.0270782776114
0.232153094297
0.237417863907
0.239879256568
0.239954166475
0.239957600665
0.239957750848
0.23995775581
0.239957755931
0.239957755285
0.239957746032
0.239957445178
0.23994932856
0.239672991358
0.220539259077
0.0186957703703
0.041188193418
0.237417884133
0.239879287493
0.239954190202
0.239957622739
0.239957772793
0.23995777775
0.239957777918
0.239957777108
0.239957765145
0.239957424345
0.239949597557
0.239746873425
0.220000022127
0.239985974407
0.24
0.237387045201
0.237410083373
0.237417721646
0.237417902052
0.237417904964
0.237417904956
0.237417904878
0.237417904818
0.23741790454
0.237417904419
0.237417904352
0.237417904274
0.237417904254
0.237417904238
0.237417917233
0.237410083374
0.239832366677
0.23987812307
0.239879234425
0.239879258349
0.239879258794
0.239879258759
0.23987925876
0.239879258757
0.23987925875
0.239879258741
0.239879258702
0.239879258728
0.239879259226
0.239879289949
0.237417721647
0.23987812308
0.239950893145
0.239954032779
0.239954162243
0.239954166304
0.239954166406
0.239954166403
0.239954166403
0.239954166403
0.239954166402
0.2399541664
0.239954166428
0.239954167291
0.23995419101
0.237417901904
0.239879234395
0.239954032778
0.239957446724
0.239957595441
0.239957600333
0.23995760046
0.239957600462
0.239957600463
0.239957600463
0.239957600462
0.239957600463
0.239957600491
0.239957601361
0.239957623431
0.237417904813
0.239879258297
0.239954162236
0.23995759544
0.23995774555
0.239957750507
0.239957750636
0.239957750638
0.239957750639
0.239957750639
0.239957750638
0.23995775064
0.239957750668
0.239957751536
0.239957773478
0.23741790482
0.239879258761
0.239954166303
0.239957600333
0.239957750507
0.239957755467
0.239957755597
0.239957755599
0.2399577556
0.2399577556
0.2399577556
0.239957755601
0.239957755629
0.239957756497
0.239957778435
0.237417904778
0.239879258752
0.239954166404
0.23995760046
0.239957750636
0.239957755597
0.239957755726
0.239957755728
0.239957755729
0.23995775573
0.239957755735
0.239957755731
0.239957755757
0.239957756605
0.239957778543
0.237417904661
0.23987925878
0.239954166403
0.239957600462
0.239957750638
0.239957755599
0.239957755728
0.239957755731
0.239957755732
0.239957755736
0.239957755728
0.239957755719
0.239957755516
0.239957755935
0.239957777787
0.237417904599
0.239879258758
0.239954166403
0.239957600463
0.239957750639
0.2399577556
0.239957755729
0.239957755733
0.239957755737
0.239957755726
0.23995775571
0.239957755046
0.239957754722
0.239957754101
0.239957777361
0.237417904549
0.239879258752
0.239954166403
0.239957600463
0.239957750639
0.2399577556
0.23995775573
0.239957755737
0.23995775573
0.23995775571
0.239957754992
0.23995775453
0.239957749258
0.239957686707
0.239957763859
0.237417904515
0.239879258748
0.239954166402
0.239957600462
0.239957750639
0.239957755599
0.23995775573
0.239957755732
0.239957755716
0.239957754997
0.239957754485
0.239957746485
0.23995756472
0.239955119469
0.239957410681
0.237417905266
0.239879258753
0.239954166403
0.239957600463
0.23995775064
0.239957755601
0.239957755731
0.239957755723
0.239957755391
0.239957754641
0.239957748448
0.23995755293
0.239952753155
0.239834609026
0.23995019833
0.237417905232
0.239879258754
0.239954166429
0.239957600491
0.239957750668
0.239957755629
0.239957755757
0.239957755575
0.239957754792
0.239957752368
0.23995766391
0.239954666026
0.239825851146
0.221540634878
0.239771559318
0.237417905229
0.239879259255
0.239954167292
0.239957601361
0.239957751537
0.239957756498
0.239957756618
0.239957756147
0.23995775522
0.239957744315
0.239957396443
0.239948240957
0.239654545701
0.220135187183
0.234776931585
0.237417925843
0.239879290181
0.239954191016
0.239957623432
0.239957773479
0.239957778433
0.239957778544
0.239957777867
0.239957777099
0.239957765489
0.239957426485
0.239949173015
0.239695706854
0.215260655829
0.232550194703
0.237387002246
0.237410041177
0.237417679666
0.237417860057
0.237417862969
0.237417862941
0.237417862873
0.237417862808
0.237417876036
0.23741786265
0.237417862555
0.237417862488
0.237417875875
0.237417875864
0.237417888398
0.237410041178
0.239832365811
0.239878122089
0.239879233449
0.239879257408
0.239879257665
0.239879258189
0.239879258088
0.239879256493
0.239879258159
0.239879258198
0.23987925784
0.239879257676
0.239879257864
0.239879287749
0.237417679656
0.239878122103
0.239950892301
0.239954032044
0.23995416171
0.239954165561
0.239954166099
0.239954165658
0.239954165601
0.239954165636
0.239954165638
0.239954165621
0.239954165645
0.239954166519
0.239954190827
0.237417860148
0.239879233818
0.239954032062
0.239957446603
0.239957594969
0.239957599663
0.239957599796
0.239957599773
0.239957599771
0.239957599772
0.239957599771
0.239957599772
0.239957599799
0.23995760067
0.239957622762
0.237417863053
0.239879257955
0.239954162202
0.239957594981
0.239957744899
0.239957749824
0.239957749952
0.239957749953
0.239957749954
0.239957749954
0.239957749954
0.239957749955
0.239957749983
0.239957750851
0.239957772794
0.237417863048
0.239879258412
0.239954165942
0.239957599684
0.239957749825
0.239957754783
0.239957754912
0.239957754914
0.239957754915
0.239957754917
0.239957754937
0.239957754933
0.239957754959
0.239957755815
0.239957777751
0.237417862745
0.239879257919
0.239954165872
0.239957599788
0.239957749952
0.239957754912
0.239957755041
0.239957755044
0.239957755047
0.239957755083
0.239957755479
0.239957755291
0.239957755284
0.239957755971
0.239957777896
0.237417862821
0.239879258166
0.239954165655
0.239957599772
0.239957749953
0.239957754914
0.239957755044
0.239957755048
0.23995775508
0.239957755291
0.239957755255
0.239957755099
0.23995775511
0.239957755975
0.239957777877
0.237417862751
0.239879258125
0.239954165633
0.239957599771
0.239957749954
0.239957754915
0.239957755046
0.23995775508
0.23995775529
0.239957755255
0.239957755111
0.239957755145
0.239957754937
0.239957755553
0.239957777735
0.237417862685
0.239879258158
0.239954165635
0.239957599772
0.239957749954
0.239957754916
0.239957755062
0.239957755297
0.239957755251
0.239957755113
0.239957755082
0.239957754837
0.239957754518
0.2399577535
0.239957777157
0.237417862629
0.239879258163
0.239954165637
0.239957599771
0.239957749954
0.239957754915
0.239957755059
0.239957755233
0.239957755097
0.239957755089
0.239957754814
0.239957754396
0.239957748685
0.239957664906
0.239957767919
0.237417862321
0.239879258108
0.239954165632
0.239957599772
0.239957749955
0.239957754916
0.239957755048
0.23995775507
0.23995775527
0.239957754882
0.239957754459
0.239957748277
0.239957571802
0.239954387723
0.23995751911
0.237417862289
0.239879258109
0.239954165658
0.2399575998
0.239957749983
0.239957754945
0.23995775508
0.239957755091
0.23995775496
0.239957754581
0.239957751951
0.239957647615
0.239954137303
0.239805780662
0.239952511592
0.237417862276
0.239879258701
0.239954166526
0.23995760067
0.239957750852
0.239957755813
0.23995775595
0.239957756007
0.239957755575
0.239957755195
0.239957744735
0.239957434222
0.239950148178
0.239767883626
0.239904777475
0.237417882761
0.239879289541
0.239954190254
0.239957622743
0.239957772795
0.239957777751
0.239957777908
0.239957777901
0.239957777495
0.239957777099
0.239957766
0.239957439626
0.239949567547
0.239726312274
0.239898085688
0.237387001377
0.237410040057
0.237417678536
0.237417858923
0.237417861831
0.237417861798
0.237417861747
0.23741786167
0.237417870208
0.237417861634
0.23741786154
0.23741786149
0.237417869523
0.237417869492
0.237417883693
0.237410040058
0.239832365818
0.239878122094
0.239879233454
0.239879257412
0.239879257671
0.239879258193
0.239879258095
0.239879256486
0.239879258163
0.239879258201
0.23987925785
0.23987925767
0.23987925786
0.239879287749
0.237417678524
0.239878122108
0.239950892287
0.239954032032
0.239954161599
0.239954165547
0.239954166093
0.239954165647
0.239954165596
0.239954165626
0.239954165627
0.23995416561
0.239954165636
0.239954166511
0.239954190829
0.237417859332
0.239879233824
0.239954032049
0.239957446599
0.239957594809
0.239957599651
0.239957599787
0.239957599765
0.239957599763
0.239957599764
0.239957599763
0.239957599761
0.239957599789
0.239957600659
0.239957622752
0.237417862244
0.239879258045
0.239954162204
0.239957594846
0.239957744884
0.239957749816
0.239957749944
0.239957749941
0.239957749941
0.239957749944
0.239957749945
0.239957749946
0.239957749973
0.239957750841
0.239957772788
0.237417862217
0.239879258467
0.239954165925
0.239957599669
0.239957749817
0.239957754774
0.239957754899
0.2399577549
0.239957754904
0.239957754907
0.239957754927
0.239957754923
0.239957754949
0.239957755804
0.239957777744
0.23741786196
0.23987925793
0.239954165767
0.239957599778
0.239957749944
0.239957754899
0.239957755028
0.239957755032
0.239957755033
0.239957755072
0.239957755467
0.239957755204
0.239957755156
0.239957755958
0.239957777891
0.237417861985
0.239879258169
0.239954165644
0.239957599765
0.239957749941
0.2399577549
0.239957755032
0.239957755034
0.239957755065
0.239957755213
0.239957755051
0.239957755089
0.23995775511
0.239957756121
0.239957778201
0.237417861899
0.239879258129
0.239954165622
0.239957599764
0.239957749941
0.239957754904
0.239957755036
0.239957755069
0.239957755209
0.239957755013
0.239957755102
0.239957755467
0.239957755396
0.239957756106
0.239957777828
0.237417861821
0.239879258162
0.239954165624
0.239957599764
0.239957749944
0.239957754906
0.239957755051
0.239957755228
0.239957755048
0.239957755105
0.239957755411
0.239957755335
0.239957755218
0.239957755975
0.239957777933
0.237417861692
0.239879258166
0.239954165626
0.239957599763
0.239957749944
0.239957754905
0.239957755045
0.239957755028
0.239957755084
0.23995775542
0.23995775534
0.239957755183
0.239957755021
0.239957754163
0.239957777461
0.237417861393
0.239879258111
0.239954165621
0.239957599764
0.239957749945
0.239957754906
0.239957755037
0.239957755051
0.23995775528
0.239957755361
0.239957755152
0.239957754751
0.239957751538
0.239957699587
0.239957772784
0.237417861349
0.239879258113
0.239954165647
0.23995759979
0.239957749973
0.239957754934
0.239957755069
0.239957755088
0.239957755414
0.239957755221
0.239957754848
0.239957752704
0.239957692983
0.239956420526
0.23995768179
0.237417861324
0.239879258703
0.239954166515
0.239957600662
0.239957750842
0.239957755803
0.239957755936
0.239957756012
0.239957756144
0.23995775607
0.239957755528
0.239957748939
0.239957599005
0.239955465007
0.239957072015
0.237417881463
0.239879289544
0.239954190248
0.239957622737
0.239957772786
0.239957777743
0.239957777902
0.239957778056
0.239957778068
0.239957777945
0.239957777415
0.23995776996
0.239957595501
0.239954973966
0.239957015586
0.237387043287
0.237410081232
0.237417719489
0.23741789988
0.237417902777
0.237417902759
0.237417902676
0.237417902575
0.237417868641
0.237417900793
0.237417900738
0.237417900646
0.237417871816
0.237417871784
0.237417889556
0.237410081233
0.239832366539
0.239878123024
0.23987923438
0.239879258282
0.239879258751
0.239879258669
0.239879258684
0.239879258344
0.239879258689
0.239879258686
0.239879258566
0.23987925842
0.239879258932
0.239879289854
0.237417719471
0.239878123012
0.239950893138
0.239954032737
0.239954161489
0.239954166247
0.239954165728
0.239954166377
0.239954166385
0.239954166396
0.239954166381
0.239954166313
0.239954166403
0.23995416726
0.239954190998
0.237417900359
0.239879234336
0.239954032736
0.239957446185
0.239957594715
0.239957600301
0.239957600435
0.239957600449
0.239957600449
0.239957600456
0.239957600433
0.239957600345
0.239957600403
0.239957601242
0.239957623346
0.23741790324
0.239879256086
0.239954161482
0.239957594847
0.239957745497
0.239957750501
0.239957750614
0.239957750515
0.239957750523
0.239957750624
0.239957750629
0.239957750623
0.239957750653
0.239957751519
0.239957773465
0.237417903236
0.239879256529
0.239954165515
0.239957600275
0.239957750499
0.239957755446
0.239957755472
0.239957755435
0.239957755548
0.239957755589
0.239957755573
0.239957755573
0.239957755601
0.239957756485
0.239957778424
0.237417903143
0.23987925863
0.239954165636
0.239957600428
0.239957750614
0.239957755472
0.239957755578
0.239957755662
0.239957755376
0.239957755672
0.239957755094
0.239957755053
0.239957755074
0.239957756456
0.23995777819
0.237417903081
0.239879258711
0.239954166374
0.239957600448
0.239957750515
0.239957755432
0.239957755655
0.239957755374
0.239957755273
0.239957755086
0.239957755079
0.239957755652
0.239957755697
0.239957756488
0.239957777933
0.237417902998
0.239879258666
0.239954166392
0.239957600449
0.239957750524
0.239957755568
0.239957755715
0.239957755673
0.239957755085
0.239957754965
0.239957755635
0.239957755097
0.239957755102
0.23995775598
0.239957777957
0.237417902955
0.239879258659
0.239954166382
0.239957600456
0.239957750624
0.239957755591
0.239957755705
0.239957755103
0.239957755082
0.239957755636
0.239957755096
0.239957755054
0.239957755075
0.239957756022
0.23995777798
0.237417902793
0.239879258719
0.239954166389
0.239957600448
0.239957750632
0.239957755592
0.239957755705
0.23995775513
0.239957755653
0.239957755096
0.23995775505
0.239957755105
0.239957755143
0.239957755691
0.239957777664
0.23741790322
0.239879258667
0.239954166382
0.239957600436
0.239957750631
0.239957755594
0.239957755716
0.239957755538
0.239957755665
0.239957755075
0.239957755176
0.239957754871
0.239957754647
0.239957754904
0.23995777738
0.2374179032
0.239879258691
0.239954166401
0.239957600417
0.239957750655
0.239957755628
0.239957755716
0.23995775568
0.239957755125
0.239957755075
0.239957754945
0.239957754605
0.239957753897
0.239957742919
0.23995777624
0.237417903175
0.239879259196
0.239954167284
0.239957601334
0.239957751519
0.239957756488
0.239957756455
0.2399577563
0.239957755953
0.239957755969
0.239957755739
0.239957755392
0.239957753226
0.239957727478
0.239957769514
0.237417923494
0.239879290115
0.239954191011
0.239957623394
0.239957773358
0.239957778415
0.239957778515
0.239957778148
0.23995777792
0.239957777982
0.239957777664
0.239957777317
0.239957774743
0.239957742384
0.239957790553
0.237387003091
0.237410040154
0.237417678356
0.237417858768
0.237417861693
0.237417861677
0.23741786164
0.237417861577
0.237417871291
0.237417900548
0.237417900489
0.237417900409
0.237417874632
0.237417874604
0.237417901269
0.237410040154
0.239832364475
0.239878121801
0.239879231821
0.239879255765
0.23987925621
0.239879258363
0.239879258375
0.239879256644
0.239879256466
0.239879256453
0.239879256483
0.239879256951
0.239879258124
0.239879287857
0.237417678342
0.23987812059
0.239950892783
0.239954032029
0.239954161479
0.239954166173
0.239954165676
0.239954166153
0.239954165621
0.239954165605
0.239954165604
0.239954165603
0.239954165655
0.239954166556
0.239954190219
0.237417858786
0.239879232376
0.239954032527
0.239957446103
0.239957594785
0.239957599678
0.2399576002
0.239957599805
0.239957599781
0.239957599776
0.239957599775
0.239957599789
0.239957599813
0.239957600673
0.239957622757
0.237417861687
0.239879255686
0.239954161448
0.239957594911
0.239957745291
0.239957749842
0.239957749987
0.239957750065
0.239957750032
0.239957749965
0.23995774997
0.239957749968
0.239957749996
0.239957750877
0.239957772824
0.237417861669
0.239879256166
0.239954165501
0.239957600036
0.239957749854
0.239957754808
0.239957755155
0.239957755418
0.239957755522
0.239957754971
0.239957755357
0.239957755219
0.239957755396
0.239957756455
0.239957778388
0.237417861453
0.239879258342
0.239954165677
0.239957599984
0.239957749975
0.239957755102
0.239957755104
0.239957755657
0.239957755376
0.239957755659
0.239957755071
0.239957755084
0.239957755142
0.239957756447
0.23995777819
0.237417861447
0.239879258356
0.239954166146
0.239957599795
0.23995775006
0.239957754966
0.239957755618
0.239957755374
0.239957755275
0.239957755137
0.239957755166
0.239957755156
0.239957755378
0.23995775606
0.23995777791
0.237417861355
0.239879256198
0.239954165609
0.239957599775
0.239957749979
0.239957754927
0.239957755112
0.239957755662
0.239957755139
0.239957755086
0.239957755366
0.239957755049
0.239957755075
0.239957755957
0.23995777809
0.237417861282
0.239879256189
0.239954165599
0.239957599776
0.239957749964
0.23995775494
0.239957755665
0.239957755147
0.239957755169
0.239957755466
0.239957755055
0.239957755047
0.239957755074
0.239957756077
0.239957778035
0.237417861551
0.239879258325
0.239954165644
0.239957599776
0.239957749961
0.239957754941
0.23995775569
0.239957755215
0.239957755232
0.239957755051
0.239957755043
0.239957755108
0.239957755201
0.23995775589
0.239957777845
0.237417861394
0.239879256554
0.239954165606
0.239957599774
0.239957749962
0.239957754963
0.239957755692
0.2399577551
0.23995775549
0.239957755053
0.239957755211
0.239957755049
0.239957754885
0.23995775562
0.239957777633
0.237417861362
0.239879256263
0.23995416564
0.239957599801
0.239957750009
0.239957755587
0.239957755713
0.239957755523
0.239957755091
0.239957755075
0.239957755119
0.239957754819
0.239957754677
0.23995775538
0.239957777429
0.23741786139
0.239879258602
0.239954166525
0.239957600681
0.239957750877
0.239957756451
0.239957756455
0.239957756086
0.239957755939
0.239957755971
0.239957755926
0.239957755673
0.239957755419
0.239957756015
0.239957778142
0.237417881389
0.239879287615
0.239954190216
0.239957622824
0.239957772801
0.239957777807
0.239957778501
0.239957778193
0.239957777921
0.239957778037
0.239957777848
0.239957777608
0.239957777383
0.239957777907
0.239957800078
0.237386999493
0.237410039288
0.237417677561
0.237417857959
0.237417860895
0.237417860869
0.237417860856
0.237417860808
0.237417895132
0.23741790092
0.237417900856
0.237417900815
0.237417885874
0.237417885672
0.23741788173
0.237410039289
0.239832364478
0.239878121806
0.239879231774
0.239879255725
0.239879256188
0.239879258456
0.239879258459
0.239879256299
0.239879256449
0.239879256444
0.239879256481
0.239879256951
0.239879258132
0.239879287599
0.237417677544
0.239878120589
0.239950892784
0.239954032026
0.239954161555
0.239954166198
0.23995416635
0.239954166155
0.2399541656
0.239954165594
0.239954165592
0.239954165584
0.239954165638
0.239954166516
0.23995419021
0.237417858069
0.239879232379
0.23995403253
0.239957446154
0.239957594841
0.239957599666
0.239957600204
0.239957599788
0.239957599763
0.239957599761
0.239957599763
0.239957599757
0.239957599781
0.239957600641
0.239957622743
0.237417860957
0.239879257993
0.239954162052
0.239957595343
0.239957745293
0.239957749826
0.239957749969
0.239957750057
0.239957750004
0.239957749952
0.239957749963
0.239957749956
0.239957749982
0.239957750866
0.239957772819
0.237417860992
0.239879258437
0.239954166262
0.239957600044
0.239957749836
0.23995775479
0.23995775514
0.239957755439
0.239957755548
0.239957754963
0.239957755358
0.239957755048
0.239957755404
0.239957756457
0.239957778394
0.237417860886
0.239879258443
0.239954166341
0.239957599988
0.239957749957
0.239957755008
0.239957755093
0.239957755698
0.239957755726
0.239957755714
0.2399577557
0.23995775568
0.239957755698
0.239957756528
0.239957778553
0.237417860855
0.239879258413
0.239954166149
0.239957599779
0.239957750053
0.239957754956
0.239957755667
0.239957755726
0.239957755728
0.239957755697
0.239957755473
0.239957755101
0.239957755393
0.239957755988
0.239957778538
0.237417860777
0.239879256193
0.239954165596
0.239957599761
0.239957749969
0.239957754913
0.239957755103
0.239957755716
0.239957755694
0.239957755342
0.239957755379
0.239957755693
0.239957755743
0.239957756606
0.239957778461
0.237417860719
0.239879256123
0.239954165582
0.23995759976
0.239957749955
0.239957754932
0.239957755691
0.239957755704
0.239957755473
0.239957755473
0.239957755698
0.239957755722
0.23995775576
0.239957756618
0.239957778552
0.237417861126
0.239879258372
0.239954165627
0.239957599758
0.239957749953
0.23995775493
0.239957755702