/*--------------------------------*- C++ -*----------------------------------*\
| =========                 |                                                 |
| \\      /  F ield         | OpenFOAM: The Open Source CFD Toolbox           |
|  \\    /   O peration     | Version:  2406                                  |
|   \\  /    A nd           | Website:  www.openfoam.com                      |
|    \\/     M anipulation  |                                                 |
\*---------------------------------------------------------------------------*/
FoamFile
{
    version     2.0;
    format      ascii;
    arch        "LSB;label=32;scalar=64";
    class       volScalarField;
    location    "0.01";
    object      nut;
}
// * * * * * * * * * * * * * * * * * * * * * * * * * * * * * * * * * * * * * //

dimensions      [0 2 -1 0 0 0 0];

internalField   nonuniform List<scalar> 
29768
(
0.00163687699436
0.00182263485716
0.00182266420327
0.00182266489561
0.00182266490906
0.00182266490928
0.00182266490952
0.00182266481841
0.00182266490815
0.00182266490847
0.00182266490791
0.0018226649074
0.00182266490657
0.00182266481486
0.00182266498531
0.00182263484908
0.0311741486415
0.043151990666
0.0435573008537
0.0435663029747
0.0435664716499
0.0435664655106
0.0435664405727
0.0435664358843
0.0435664325696
0.0435664250833
0.0435664333546
0.0435664483351
0.0435664263292
0.0435669484791
0.00182266420299
0.0431520025672
0.113665517608
0.122430723779
0.122832850058
0.122845857446
0.12284618545
0.122846185584
0.122846183643
0.122846182802
0.122846179093
0.122846179126
0.122846183277
0.122846210374
0.122847000048
0.00182266489557
0.0435572887396
0.122430718746
0.133685320291
0.134239913773
0.13425879572
0.134259298417
0.134259309099
0.134259309144
0.134259309087
0.134259308792
0.134259308705
0.134259308912
0.134259312715
0.134259400941
0.00182266490912
0.0435662981799
0.122832847363
0.134239913587
0.134804787988
0.134824086635
0.134824602176
0.134824613513
0.13482461372
0.134824613718
0.134824613706
0.134824613681
0.134824613464
0.134824611075
0.134824623722
0.00182266490934
0.043566467604
0.122845856511
0.134258795674
0.134824086634
0.134843402531
0.134843918613
0.13484392998
0.134843930193
0.134843930195
0.134843930152
0.134843929012
0.134843908864
0.134843697537
0.134843614996
0.00182266481793
0.0435664653374
0.122846185903
0.134259298475
0.134824602178
0.134843918613
0.134844434714
0.13484444608
0.134844446292
0.134844446213
0.134844443573
0.134844378485
0.134843163018
0.134830397806
0.13482572074
0.00182266490783
0.0435664757218
0.122846194725
0.134259309562
0.134824613529
0.13484392998
0.13484444608
0.134844457444
0.134844457511
0.13484445318
0.134844322166
0.134841095053
0.134782964306
0.134184331661
0.134011376912
0.00182266490815
0.0435664549169
0.122846189453
0.134259309466
0.134824613729
0.134843930194
0.134844446291
0.134844457481
0.134844452297
0.134844264962
0.13483888155
0.134716715278
0.13270519849
0.114380722992
0.110972470844
0.00182266490764
0.0435664634458
0.122846189818
0.134259309393
0.134824613728
0.134843930194
0.134844446138
0.134844452345
0.134844250343
0.134837732261
0.134671899572
0.131487570266
0.0949467661008
0.0158731752061
0.0139954484434
0.00182266481569
0.043566442671
0.122846182304
0.134259308914
0.134824613703
0.134843930125
0.134844442492
0.134844289633
0.134838270984
0.134667738303
0.131144379288
0.0893446799337
0.0104425727515
0.000126930575839
0.000113065079261
0.00182266481929
0.0435664357071
0.122846182176
0.134259308929
0.134824613703
0.134843928258
0.134844350048
0.1348403285
0.134706843066
0.131561584273
0.0911877788559
0.0106115573401
0.00014121855986
1.51702679956e-06
4.31411371994e-06
0.00182266490221
0.0435664359047
0.122846181007
0.134259308863
0.134824613197
0.134843895492
0.134842693807
0.134773843071
0.132754291856
0.0995211514032
0.0132338775735
0.00015565147125
4.89415193931e-08
2.16682882063e-07
8.18304820332e-07
0.00182266490881
0.0435664201493
0.122846209784
0.134259312678
0.134824608083
0.134843561208
0.134826382705
0.13415757994
0.117372337116
0.0237742060961
0.000348502589665
4.26456604893e-07
3.53497860757e-06
0.00438213076408
0.00619820483231
0.00182266489446
0.043566933893
0.122846997211
0.13425940067
0.134824611786
0.134843010437
0.134801912128
0.133356711714
0.102769281672
0.0119216182412
0.000187577871937
1.60312082749e-05
0.00438176946921
0.134831460674
0.134831460674
0.00163691871714
0.00182263390913
0.00182266326217
0.00182266395557
0.00182266396697
0.00182266396714
0.00182266396718
0.00182266396674
0.00182266396726
0.00182266396724
0.00182266396722
0.00182266396719
0.00182266396717
0.00182266396671
0.0018226640445
0.00182263390912
0.0311738878009
0.0431516239818
0.0435569351218
0.0435659396546
0.0435661053174
0.0435661037292
0.0435660981255
0.0435660924759
0.0435660863551
0.0435660798627
0.0435660742342
0.0435660695652
0.0435660784714
0.0435665720217
0.00182266326218
0.0431516225621
0.113664874661
0.122430280872
0.122832426413
0.122845434636
0.122845766797
0.122845769342
0.122845766987
0.12284576468
0.122845761936
0.122845759426
0.122845758705
0.122845792786
0.122846574396
0.00182266395562
0.0435569336994
0.122430277622
0.133685235941
0.134239866293
0.134258750183
0.134259253357
0.134259263978
0.134259263995
0.134259263835
0.134259263626
0.134259263419
0.134259263433
0.134259267589
0.134259355303
0.00182266396707
0.0435659414994
0.122832427619
0.134239866386
0.134804779356
0.134824080008
0.134824595642
0.134824606976
0.13482460718
0.134824607175
0.134824607164
0.134824607152
0.134824607156
0.134824607402
0.134824621399
0.00182266396729
0.0435661046278
0.122845434156
0.134258750114
0.134824080003
0.134843397928
0.134843914085
0.134843925453
0.134843925666
0.134843925669
0.134843925666
0.134843925603
0.134843923672
0.134843901011
0.134843910209
0.00182266396695
0.0435661061359
0.122845766764
0.13425925327
0.134824595636
0.134843914085
0.134844430258
0.134844441626
0.13484444184
0.134844441839
0.134844441674
0.134844435583
0.134844307056
0.134842816043
0.134842844776
0.00182266396746
0.0435660983985
0.122845771133
0.134259264174
0.134824606985
0.134843925453
0.134844441626
0.134844452995
0.134844453204
0.134844452935
0.134844441284
0.134844106055
0.13483726435
0.134759480409
0.134764869374
0.00182266396754
0.0435660927409
0.122845766731
0.134259263944
0.134824607176
0.134843925666
0.13484444184
0.134844453207
0.134844453105
0.13484443782
0.134843903625
0.134829407361
0.134551593404
0.131551732638
0.131917086605
0.0018226639676
0.0435660874777
0.122845764568
0.134259263784
0.134824607171
0.134843925669
0.134844441842
0.134844452952
0.134844438628
0.1348438543
0.134824988117
0.13436555003
0.126874376005
0.0728698198798
0.079451797583
0.00182266396716
0.043566081355
0.122845762506
0.134259263656
0.134824607165
0.134843925667
0.134844441698
0.134844442981
0.13484398554
0.134827065366
0.134345821589
0.125083138801
0.0551937604101
0.00329707778751
0.00444967167606
0.00182266396683
0.0435660767759
0.12284576032
0.134259263466
0.134824607153
0.134843925625
0.134844436912
0.13484419809
0.134833665863
0.134485611738
0.126490392843
0.0559271056771
0.00311545999243
7.90821270454e-06
0.000189131053424
0.00182266396726
0.0435660726219
0.122845760196
0.134259263551
0.134824607149
0.134843924207
0.134844353988
0.134840229211
0.134681227485
0.130176565317
0.0704488134986
0.00394116066264
2.57321425682e-06
5.14009111649e-06
3.45660997221e-05
0.00182266396744
0.0435660826786
0.122845793895
0.134259267635
0.134824607478
0.134843910939
0.134843618471
0.13480789255
0.133587445026
0.10697211026
0.0137397385572
0.000174433050125
2.81800890993e-05
0.00374798171543
0.00470677475358
0.00182266404436
0.0435665718725
0.122846572825
0.134259355142
0.134824621205
0.134843904602
0.134842859717
0.134779978269
0.1328610661
0.0980035691722
0.0110592648417
0.00122155279965
0.0037479263784
0.134831460674
0.134831460674
0.00163693009048
0.00182263389863
0.00182266325163
0.00182266394494
0.00182266395618
0.0018226639562
0.00182266395606
0.00182266395593
0.00182266395553
0.00182266395511
0.00182266395496
0.00182266395481
0.00182266395468
0.00182266395467
0.00182266403404
0.00182263389864
0.0311738826258
0.043151615537
0.0435569266008
0.0435659306631
0.0435660960163
0.0435660943601
0.0435660887349
0.0435660830293
0.0435660764667
0.0435660702891
0.0435660639539
0.0435660593939
0.0435660686117
0.0435665611695
0.00182266325165
0.0431516145903
0.113664857985
0.122430268481
0.12283241492
0.122845423079
0.122845754438
0.12284575779
0.122845755591
0.122845753142
0.122845750537
0.12284574726
0.122845747057
0.122845781319
0.122846561519
0.00182266394471
0.043556925666
0.122430265751
0.133685233629
0.134239865066
0.134258749001
0.134259252039
0.134259262791
0.134259262828
0.134259262656
0.134259262454
0.134259262158
0.134259262247
0.134259266412
0.134259353989
0.001822663956
0.0435659325922
0.122832415268
0.134239865054
0.134804779169
0.134824079878
0.134824595495
0.134824606847
0.134824607052
0.134824607046
0.134824607035
0.13482460702
0.134824607048
0.134824607566
0.134824621602
0.00182266395605
0.0435660956251
0.122845421812
0.134258748815
0.134824079853
0.134843397851
0.13484391401
0.134843925377
0.134843925591
0.134843925594
0.134843925593
0.134843925589
0.134843925515
0.134843924936
0.134843935458
0.00182266395603
0.0435660966913
0.122845754119
0.134259251934
0.134824595484
0.134843914009
0.134844430184
0.134844441553
0.134844441766
0.134844441769
0.134844441759
0.134844441498
0.134844435447
0.134844365666
0.13484440396
0.00182266395571
0.0435660884288
0.122845758329
0.13425926283
0.134824606847
0.134843925377
0.134844441553
0.134844452921
0.134844453134
0.134844453122
0.134844452606
0.134844435688
0.134844067643
0.134839844111
0.134841898204
0.00182266395568
0.0435660816916
0.122845754313
0.134259262691
0.134824607044
0.134843925591
0.134844441766
0.134844453134
0.13484445333
0.134844452658
0.134844424859
0.134843574302
0.134825535529
0.134621450205
0.134737906589
0.00182266395565
0.043566075351
0.122845751858
0.134259262519
0.134824607038
0.134843925594
0.134844441769
0.134844453122
0.134844452729
0.134844422968
0.134843281003
0.134809799023
0.13413830631
0.126982640635
0.131659528194
0.00182266395563
0.0435660686272
0.122845749934
0.134259262406
0.134824607033
0.134843925593
0.134844441758
0.134844452751
0.13484443157
0.134843460323
0.134808014754
0.133849535746
0.117901546873
0.0400040448177
0.0860721110488
0.00182266395765
0.0435660623046
0.122845746679
0.134259262122
0.134824607017
0.134843925585
0.134844441609
0.134844442886
0.134843920525
0.134821382391
0.134059175055
0.117192972076
0.0277765533025
0.000693686114467
0.012132735541
0.00182266395761
0.0435660569797
0.12284574649
0.134259262215
0.134824607031
0.134843925553
0.134844438883
0.134844286425
0.134836333888
0.134517637185
0.124998667754
0.0354011879118
0.000511640523441
1.35083317344e-05
0.00040927860154
0.00182266395767
0.0435660660334
0.122845779798
0.134259266271
0.134824607562
0.134843925585
0.134844417769
0.134843212209
0.134792495436
0.133140459249
0.0995685677444
0.0101939312028
0.000184829952938
2.78456764881e-05
4.97879100203e-05
0.0018226640354
0.0435665537189
0.12284655788
0.134259353712
0.134824621568
0.134843935473
0.134844412303
0.134842631821
0.134776615829
0.132919996154
0.101069723985
0.0144201539319
0.00123093994634
0.00374810123486
0.00470648734273
0.0016369651665
0.00182263405888
0.001822663411
0.00182266410426
0.00182266411545
0.00182266411542
0.00182266411512
0.00182266411489
0.00182266411382
0.00182266411335
0.00182266411309
0.0018226641128
0.00182266411272
0.00182266411266
0.00182266416259
0.00182263405889
0.0311739033245
0.0431516734895
0.0435569851846
0.0435659896633
0.0435661553384
0.0435661201583
0.0435661201324
0.0435661450043
0.0435661411806
0.0435661354353
0.0435660983232
0.0435661267538
0.0435661370128
0.0435665846206
0.00182266341101
0.0431516715981
0.113664933765
0.122430313863
0.12283246428
0.122845471703
0.122845765014
0.122845794166
0.122845805371
0.122845804693
0.122845801694
0.122845775113
0.122845798732
0.122845832707
0.122846572772
0.00182266410369
0.043556958437
0.122430310766
0.13368524134
0.134239869908
0.134258753601
0.134259253045
0.134259266475
0.134259267524
0.134259267498
0.134259267254
0.13425926515
0.134259267071
0.134259271196
0.134259355081
0.00182266411487
0.0435659505688
0.122832424467
0.134239867444
0.134804779783
0.134824080357
0.134824595865
0.134824607287
0.134824607537
0.134824607528
0.134824607515
0.134824607454
0.134824607514
0.134824608054
0.134824621986
0.00182266411489
0.0435661266909
0.12284543863
0.13425874998
0.134824080232
0.134843398132
0.134843914283
0.134843925653
0.134843925867
0.13484392587
0.13484392587
0.134843925869
0.13484392588
0.13484392628
0.134843936491
0.00182266411473
0.0435661169421
0.122845762296
0.134259252771
0.134824595849
0.134843914283
0.134844430453
0.134844441822
0.134844442035
0.134844442038
0.134844442041
0.13484444207
0.13484444194
0.134844440033
0.134844451647
0.00182266411428
0.0435661491217
0.122845801176
0.134259266709
0.134824607279
0.134843925652
0.134844441822
0.134844453188
0.134844453402
0.134844453409
0.134844453445
0.134844452934
0.134844439714
0.134844276776
0.134844410245
0.00182266411405
0.0435661427729
0.122845803242
0.134259267305
0.134824607526
0.134843925867
0.134844442035
0.134844453403
0.13484445362
0.134844453657
0.134844452766
0.13484442027
0.134843640556
0.134833710542
0.134841972503
0.00182266411385
0.0435661393631
0.122845802917
0.134259267323
0.134824607528
0.13484392587
0.134844442038
0.134844453412
0.13484445366
0.134844452715
0.134844408377
0.134842865926
0.134804943517
0.134312552525
0.134752632529
0.00182266411372
0.0435661357942
0.122845802569
0.134259267337
0.134824607515
0.13484392587
0.134844442039
0.13484445344
0.134844453032
0.134844416462
0.134842789591
0.134785415832
0.133389749311
0.116421944269
0.132340261474
0.00182266411661
0.043566129861
0.122845798606
0.134259266959
0.13482460751
0.134843925872
0.134844442066
0.134844453209
0.134844435492
0.134843484843
0.134800870705
0.133327360347
0.103746512419
0.0158192180649
0.0961997875839
0.00182266411648
0.043566126271
0.122845798583
0.134259267043
0.134824607523
0.134843925886
0.134844442065
0.134844448628
0.134844167477
0.134829582553
0.134193522645
0.114403575118
0.0147830845938
0.00012353695291
0.012315258811
0.00182266411646
0.0435661368387
0.122845833582
0.134259271294
0.134824608072
0.134843926295
0.134844441979
0.13484442221
0.134842910644
0.134781762448
0.132850674642
0.0961654261546
0.00993296102089
0.000186474713584
0.000670476152175
0.00182266419568
0.0435666253896
0.122846612332
0.134259358789
0.134824622074
0.134843936503
0.134844451801
0.13484442258
0.134842654782
0.134778653274
0.132963792023
0.100650383436
0.0123565439195
0.000743206370359
0.000987035357944
0.00163697446849
0.00182263389673
0.00182266324969
0.00182266394288
0.00182266395407
0.00182266395396
0.0018226639537
0.00182266395345
0.00182266400428
0.00182266395284
0.00182266395248
0.00182266395222
0.00182266400366
0.00182266400362
0.00182266405179
0.00182263389674
0.0311739037078
0.0431516566446
0.0435569617364
0.0435659667051
0.0435661377644
0.043566120927
0.0435661207748
0.0435661107487
0.0435661261503
0.0435661224118
0.043566099653
0.0435661067767
0.0435661199098
0.0435665865869
0.00182266324965
0.0431516420012
0.113664906076
0.122430295199
0.12283244409
0.122845456639
0.12284576525
0.122845793678
0.122845772264
0.122845790551
0.12284578999
0.122845774986
0.122845779872
0.122845817059
0.12284657374
0.00182266394323
0.043556958786
0.122430290031
0.133685237753
0.134239867535
0.134258751912
0.134259252732
0.134259266078
0.134259264313
0.134259265889
0.134259265865
0.134259264788
0.134259265146
0.134259269564
0.134259354821
0.00182266395439
0.043565951637
0.122832424702
0.134239867172
0.134804779334
0.13482407997
0.134824595532
0.134824606938
0.13482460711
0.134824607143
0.134824607139
0.134824607103
0.13482460713
0.134824607681
0.134824621657
0.00182266395437
0.0435661274691
0.122845439144
0.134258749694
0.134824079897
0.134843397852
0.13484391401
0.134843925379
0.134843925591
0.134843925592
0.134843925603
0.134843925603
0.13484392561
0.134843925977
0.13484393618
0.00182266395321
0.0435661176925
0.122845762617
0.134259252487
0.134824595522
0.13484391401
0.134844430183
0.134844441548
0.13484444176
0.134844441738
0.134844441954
0.1348444419
0.134844441841
0.134844442116
0.134844452203
0.0018226639535
0.0435661221248
0.122845791757
0.134259265881
0.134824606919
0.134843925378
0.134844441547
0.134844452864
0.134844453105
0.134844453267
0.134844453251
0.134844453154
0.134844452889
0.134844449375
0.134844462747
0.00182266395323
0.0435661049087
0.122845773275
0.134259264429
0.13482460709
0.13484392559
0.134844441759
0.134844453107
0.134844453477
0.134844453468
0.134844453363
0.134844452642
0.134844433018
0.134844160651
0.13484441991
0.00182266395298
0.0435661178987
0.122845780484
0.134259265024
0.134824607118
0.13484392559
0.13484444173
0.134844453266
0.134844453466
0.134844453367
0.13484445233
0.134844412557
0.134843312379
0.134826968329
0.134842506657
0.00182266395276
0.0435661192449
0.122845794625
0.134259266439
0.134824607147
0.13484392559
0.134844441714
0.134844453164
0.134844453359
0.134844452531
0.134844410562
0.134842712492
0.134792958129
0.1339969415
0.134772129916
0.00182266395158
0.0435660946779
0.122845764815
0.13425926363
0.134824607082
0.134843925589
0.134844441687
0.134844453137
0.134844453105
0.134844429177
0.134843195267
0.13479076929
0.133163862211
0.107288693938
0.132775500541
0.00182266395146
0.043566106041
0.122845779847
0.134259264976
0.134824607119
0.134843925605
0.13484444178
0.134844453082
0.134844446723
0.134844053907
0.134823281154
0.133905830958
0.106333263708
0.00943362989309
0.101301900665
0.00182266395141
0.0435661047803
0.122845806589
0.134259268697
0.13482460767
0.134843925977
0.134844442141
0.134844452971
0.134844419545
0.134842856391
0.13478298397
0.133020125715
0.101471929309
0.0147462368479
0.0404629482647
0.00182266403013
0.0435665910689
0.122846601648
0.13425935787
0.13482462172
0.134843936178
0.134844452214
0.13484446286
0.134844424402
0.134842734113
0.134780840252
0.132994102105
0.100531523584
0.0125727070362
0.0374796711564
0.00163700071337
0.00182263389243
0.00182266324534
0.00182266393852
0.0018226639497
0.00182266394957
0.00182266394937
0.00182266394908
0.00182266398189
0.00182266394894
0.00182266394858
0.00182266394839
0.00182266397926
0.00182266397914
0.00182266403371
0.00182263389243
0.0311739307679
0.0431516579175
0.0435569631819
0.0435659664339
0.0435661398475
0.0435661623967
0.0435661581848
0.0435661094251
0.0435661296523
0.0435661264416
0.0435661458356
0.043566107308
0.043566123617
0.0435666428748
0.0018226632453
0.043151642982
0.113664906422
0.122430295496
0.122832444274
0.122845457572
0.122845804164
0.122845809464
0.122845771678
0.122845791425
0.122845791165
0.122845802389
0.122845781103
0.122845818819
0.122846618274
0.00182266394009
0.0435569766808
0.122430290928
0.133685237812
0.134239867472
0.134258751983
0.134259256146
0.134259267259
0.134259264252
0.134259265942
0.134259265938
0.134259266703
0.134259265238
0.134259269696
0.13425935881
0.00182266395128
0.043565992895
0.122832461181
0.134239868899
0.134804779342
0.134824079983
0.134824595629
0.13482460699
0.134824607116
0.134824607152
0.13482460715
0.134824607159
0.134824607147
0.134824607707
0.134824621787
0.00182266395118
0.0435661513401
0.122845467695
0.134258752542
0.134824079978
0.134843397855
0.134843914011
0.134843925378
0.13484392559
0.134843925591
0.134843925602
0.134843925603
0.134843925608
0.134843925961
0.134843936168
0.00182266395019
0.0435661605604
0.122845803152
0.134259256163
0.134824595632
0.134843914011
0.134844430181
0.134844441545
0.134844441757
0.134844441754
0.134844441961
0.134844441843
0.134844441734
0.134844442131
0.134844452189
0.00182266395029
0.0435661243182
0.122845798402
0.134259266592
0.134824606966
0.134843925377
0.134844441545
0.134844452873
0.134844453125
0.134844453227
0.134844453124
0.134844453137
0.134844453143
0.134844453532
0.134844463708
0.00182266394996
0.0435661019466
0.12284577377
0.134259264478
0.134824607088
0.13484392559
0.134844441757
0.134844453131
0.134844453435
0.134844453319
0.134844453354
0.134844453537
0.134844453224
0.134844449204
0.134844463201
0.00182266394966
0.0435661219015
0.122845781534
0.134259265094
0.13482460712
0.134843925591
0.13484444175
0.134844453231
0.134844453339
0.134844453358
0.134844453509
0.134844452879
0.134844435002
0.134844161722
0.134844435048
0.00182266394917
0.0435661236785
0.12284579771
0.134259266689
0.134824607174
0.134843925591
0.134844441725
0.134844453035
0.134844453343
0.134844453515
0.134844452849
0.134844424936
0.134843572925
0.134829383544
0.13484325979
0.00182266394801
0.0435660911887
0.122845763758
0.134259263553
0.134824607091
0.134843925588
0.134844441672
0.134844453115
0.134844453455
0.134844453151
0.13484443279
0.134843527965
0.13481375173
0.13425789653
0.134805304295
0.00182266394784
0.043566108951
0.122845781404
0.134259265089
0.134824607123
0.134843925604
0.134844441756
0.134844453139
0.13484445345
0.134844446961
0.134844089496
0.134827381824
0.134225208185
0.121003152852
0.134032011936
0.00182266394775
0.0435661016563
0.12284580777
0.134259268802
0.134824607685
0.13484392596
0.134844442119
0.134844453528
0.134844453303
0.134844425578
0.134843262623
0.134805000788
0.133903313545
0.121888884074
0.130586380666
0.00182266402514
0.043566590871
0.122846605433
0.134259358234
0.134824621758
0.134843936165
0.134844452197
0.134844463648
0.13484446326
0.134844431665
0.134843131217
0.134800376463
0.133772248734
0.119503907181
0.130129465028
0.00163700694105
0.00182263405066
0.00182266340271
0.00182266409591
0.00182266410704
0.00182266410697
0.00182266410665
0.00182266410627
0.00182266397587
0.00182266409942
0.00182266409921
0.00182266409886
0.00182266398807
0.00182266398795
0.00182266405624
0.00182263405066
0.0311739039736
0.0431516772699
0.0435569897283
0.0435659784591
0.043566160491
0.0435661471255
0.0435661452413
0.0435661151932
0.0435661455303
0.0435661415979
0.0435661359386
0.0435661158072
0.0435661411509
0.043566630189
0.00182266340265
0.0431516589521
0.113664928617
0.122430312464
0.122832455058
0.122845473144
0.122845798144
0.12284579967
0.122845775655
0.122845803952
0.122845802577
0.122845793955
0.122845794282
0.122845832313
0.122846606461
0.00182266409775
0.0435569761808
0.122430302985
0.133685239908
0.134239868739
0.13425875365
0.13425925639
0.13425926676
0.134259264824
0.134259267198
0.134259267105
0.134259266299
0.134259266561
0.13425927088
0.134259358131
0.00182266410882
0.0435659734941
0.122832454577
0.134239868663
0.134804779711
0.134824080364
0.134824595976
0.134824607267
0.134824607433
0.134824607532
0.134824607529
0.134824607494
0.134824607523
0.134824608088
0.134824622096
0.00182266410881
0.0435661496622
0.122845466568
0.134258752829
0.134824080337
0.134843398134
0.134843914269
0.134843925641
0.134843925897
0.134843925882
0.134843925866
0.13484392586
0.134843925879
0.134843926292
0.13484393649
0.00182266410845
0.0435661259445
0.122845775416
0.134259255309
0.134824595944
0.134843914265
0.13484443043
0.134844441845
0.134844441924
0.134844442103
0.134844441778
0.13484444168
0.134844441765
0.134844442402
0.134844452356
0.00182266410821
0.0435661374167
0.122845774845
0.134259264388
0.134824607208
0.1348439256
0.134844441798
0.134844453093
0.134844453249
0.134844453058
0.13484445306
0.134844453395
0.134844453414
0.134844453739
0.13484446359
0.00182266410789
0.0435661051803
0.12284578862
0.134259266076
0.134824607431
0.134843925893
0.134844442045
0.134844453477
0.134844453265
0.134844453207
0.134844453604
0.134844453375
0.134844453373
0.134844453702
0.134844463806
0.00182266410773
0.0435661472541
0.122845802341
0.134259267095
0.13482460751
0.134843925916
0.13484444213
0.134844453096
0.134844453273
0.134844453608
0.134844453377
0.134844453353
0.134844453188
0.134844450642
0.134844463565
0.00182266410711
0.043566143789
0.12284577506
0.134259264187
0.134824607441
0.134843925918
0.13484444213
0.134844453174
0.134844453616
0.134844453378
0.134844453349
0.1348444531
0.134844443748
0.134844290431
0.134844450156
0.00182266410874
0.0435660954232
0.122845764901
0.134259264225
0.134824607441
0.134843925905
0.134844442137
0.134844453355
0.134844453609
0.134844453366
0.134844453223
0.134844442975
0.134844115488
0.134838258002
0.13484400989
0.00182266410867
0.0435661218133
0.122845800149
0.134259267071
0.134824607519
0.134843925888
0.134844442085
0.134844453427
0.134844453316
0.134844453304
0.134844449188
0.134844261276
0.134837764189
0.134706032621
0.134834980665
0.00182266410857
0.0435661065029
0.122845825951
0.13425927074
0.134824608065
0.13484392627
0.134844442402
0.13484445368
0.134844453681
0.134844453407
0.134844437519
0.134843897973
0.134830890785
0.13465890003
0.134788472447
0.00182266418665
0.043566595611
0.12284659859
0.134259357896
0.134824622061
0.134843936508
0.13484445254
0.134844463698
0.134844463793
0.134844463444
0.134844444639
0.13484380516
0.13482815746
0.134615241411
0.134782061383
0.00163702521419
0.0018226338928
0.00182266324465
0.00182266393793
0.00182266394917
0.00182266394911
0.00182266394896
0.00182266394872
0.00182266398605
0.00182266409848
0.00182266409825
0.00182266409794
0.00182266399889
0.00182266399878
0.00182266410125
0.0018226338928
0.0311739031379
0.0431516620784
0.0435569711336
0.0435659790932
0.0435661253576
0.0435661488404
0.0435661474899
0.0435661211409
0.0435661439975
0.0435661383232
0.0435661389694
0.0435661191387
0.0435661426844
0.0435666338294
0.0018226632446
0.0431516319104
0.113664871342
0.122430298221
0.122832454088
0.122845434151
0.122845798252
0.122845800088
0.122845777397
0.122845800525
0.122845798451
0.122845794377
0.122845792551
0.122845829719
0.122846607037
0.001822663938
0.0435569900152
0.122430285914
0.133685235762
0.134239868676
0.134258749735
0.134259256322
0.134259266438
0.134259264625
0.134259266637
0.134259266471
0.134259266041
0.134259266073
0.134259270406
0.134259357866
0.00182266394914
0.0435659751049
0.12283245836
0.13423986921
0.134804779688
0.134824079922
0.134824595661
0.134824607033
0.134824607174
0.13482460719
0.134824607188
0.134824607157
0.134824607183
0.134824607759
0.134824621763
0.00182266394908
0.0435661627149
0.122845473078
0.134258753491
0.134824080032
0.134843397866
0.134843914145
0.134843925661
0.134843925883
0.134843925536
0.134843925745
0.134843925708
0.134843925766
0.134843926269
0.134843936465
0.00182266394824
0.0435661245449
0.12284577517
0.134259255183
0.134824595627
0.134843914114
0.134844430204
0.134844441843
0.134844441923
0.134844442086
0.134844441759
0.134844441698
0.134844441809
0.134844442387
0.134844452346
0.00182266394822
0.0435661320511
0.122845772317
0.134259263953
0.134824606954
0.134843925403
0.134844441856
0.134844453087
0.134844453238
0.134844453088
0.134844453141
0.134844453169
0.134844453298
0.1348444535
0.134844463563
0.00182266394787
0.0435661065996
0.122845769905
0.134259263858
0.134824607116
0.134843925594
0.134844441744
0.13484445346
0.134844453348
0.134844453311
0.134844453486
0.134844453337
0.134844453341
0.134844453703
0.134844463868
0.00182266394759
0.0435661221126
0.122845780278
0.13425926502
0.134824607122
0.134843925552
0.134844442097
0.13484445312
0.134844453351
0.134844453526
0.134844453341
0.134844453333
0.134844453343
0.134844453762
0.134844463853
0.00182266394862
0.0435661334001
0.122845766909
0.134259263461
0.134824607087
0.134843925555
0.134844442111
0.134844453228
0.134844453415
0.134844453341
0.13484445333
0.134844453368
0.134844453344
0.134844452422
0.134844463655
0.00182266394802
0.0435661026003
0.122845765268
0.134259264529
0.134824607135
0.134843925608
0.134844442129
0.134844453111
0.134844453551
0.134844453336
0.134844453425
0.134844453257
0.134844450546
0.134844405959
0.134844459783
0.0018226639479
0.0435661236513
0.122845775474
0.134259264379
0.134824607147
0.134843925959
0.134844442077
0.134844453344
0.134844453316
0.134844453338
0.134844453342
0.134844451644
0.13484440022
0.134843458305
0.134844382246
0.001822663948
0.0435661122197
0.122845807936
0.134259268057
0.134824607682
0.134843926249
0.13484444239
0.134844453558
0.134844453686
0.134844453719
0.134844453558
0.134844447804
0.134844311608
0.134842583088
0.13484392053
0.00182266402485
0.0435666012915
0.122846598994
0.134259357608
0.134824621755
0.134843936157
0.134844452522
0.13484446372
0.13484446378
0.134844463852
0.134844463574
0.134844456502
0.13484428659
0.134842090376
0.134843866873
0.00163702777496
0.00182263388947
0.0018226632416
0.00182266393482
0.0018226639461
0.001822663946
0.00182266394595
0.00182266394577
0.00182266407766
0.00182266409991
0.00182266409966
0.0018226640995
0.00182266404209
0.00182266404131
0.00182266402617
0.00182263388948
0.0311739064785
0.0431516625247
0.0435569716669
0.0435659958019
0.0435661249002
0.0435661705974
0.043566168421
0.0435661585702
0.0435661478667
0.0435661399497
0.0435661613153
0.043566131403
0.0435661476767
0.0435666586462
0.00182266324153
0.0431516312933
0.113664870769
0.122430298499
0.122832465387
0.122845433214
0.122845776848
0.122845813833
0.122845808682
0.122845806342
0.122845803686
0.122845809242
0.122845797772
0.122845836979
0.122846622038
0.00182266393524
0.0435569613536
0.12243027918
0.133685235593
0.134239869551
0.134258749638
0.134259253419
0.134259267514
0.134259267113
0.134259267291
0.134259267086
0.134259267149
0.134259266397
0.134259271156
0.134259358883
0.00182266394634
0.0435659985866
0.122832434955
0.134239866455
0.134804779572
0.13482407992
0.134824595557
0.134824607069
0.134824607224
0.134824607205
0.134824607205
0.134824607187
0.134824607191
0.134824607784
0.134824621803
0.00182266394647
0.0435661324756
0.122845457992
0.134258752277
0.134824079964
0.13484339786
0.134843914139
0.134843925672
0.134843925895
0.134843925524
0.134843925742
0.134843925634
0.134843925766
0.13484392624
0.13484393644
0.00182266394607
0.0435661283335
0.122845777927
0.134259254906