/*--------------------------------*- C++ -*----------------------------------*\
| =========                 |                                                 |
| \\      /  F ield         | OpenFOAM: The Open Source CFD Toolbox           |
|  \\    /   O peration     | Version:  2406                                  |
|   \\  /    A nd           | Website:  www.openfoam.com                      |
|    \\/     M anipulation  |                                                 |
\*---------------------------------------------------------------------------*/
FoamFile
{
    version     2.0;
    format      ascii;
    arch        "LSB;label=32;scalar=64";
    class       volScalarField;
    location    "0.01";
    object      omega;
}
// * * * * * * * * * * * * * * * * * * * * * * * * * * * * * * * * * * * * * //

dimensions      [0 0 -1 0 0 0 0];

internalField   nonuniform List<scalar> 
29768
(
130.250320144
130.256639268
130.258731912
130.258781282
130.258782241
130.258782256
130.258782274
130.258775776
130.258782175
130.258782199
130.258782159
130.258782122
130.258782063
130.258775524
130.258787678
130.256638692
7.69330996236
5.55891248601
5.50721110304
5.50607369592
5.50605239206
5.50605318352
5.50605632668
5.5060569181
5.50605734201
5.5060582843
5.50605722589
5.50605534811
5.50605813697
5.50599284624
130.258731891
5.55891097262
2.1110263624
1.95991688813
1.95350162807
1.95329481689
1.95328960238
1.95328960022
1.95328963108
1.95328964448
1.95328970343
1.95328970287
1.95328963712
1.95328921327
1.9532768507
130.258781279
5.50721265513
1.95991696875
1.79494244993
1.78752800287
1.78727664417
1.78726995316
1.78726981096
1.78726981037
1.78726981112
1.78726981504
1.78726981621
1.78726981367
1.78726976953
1.78726875968
130.258782245
5.50607432231
1.95350167099
1.78752800535
1.78003881469
1.77978405764
1.77977725308
1.77977710344
1.77977710072
1.77977710074
1.7797771009
1.77977710124
1.77977710432
1.7797771423
1.77977713829
130.258782261
5.50605291825
1.95329483181
1.78727664478
1.77978405767
1.77952914591
1.77952233615
1.77952218617
1.77952218336
1.77952218333
1.77952218391
1.77952219897
1.77952246504
1.77952526007
1.77952651214
130.258775742
5.50605319627
1.95328959514
1.78726995238
1.77977725305
1.77952233615
1.77951552621
1.77951537623
1.77951537344
1.77951537449
1.77951540934
1.7795162682
1.77953230731
1.77970077587
1.77976267032
130.258782153
5.50605187298
1.95328945486
1.78726980481
1.77977710322
1.77952218616
1.77951537623
1.77951522629
1.77951522542
1.77951528254
1.77951701138
1.779559596
1.78032703374
1.78826873469
1.79057661362
130.258782176
5.50605451753
1.95328953873
1.78726980608
1.77977710059
1.77952218336
1.77951537346
1.77951522581
1.7795152942
1.77951776623
1.77958880613
1.78120244735
1.80819868444
2.09784670018
2.16226941699
130.25878214
5.50605343988
1.95328953293
1.78726980706
1.77977710061
1.77952218334
1.77951537548
1.77951529359
1.77951795915
1.77960397389
1.78179512576
1.82494149685
2.52717541961
15.1046926444
17.1292526006
130.258775582
5.50605604602
1.9532896523
1.78726981343
1.77977710094
1.77952218427
1.7795154236
1.77951744068
1.77959686542
1.78185017466
1.82971656769
2.68560859885
22.9497425679
1681.82773933
1861.92553596
130.258775839
5.50605694104
1.95328965441
1.78726981324
1.77977710095
1.77952220891
1.77951664347
1.77956971209
1.78133296565
1.82391476904
2.63133203479
22.5845925737
1527.00159813
7631.18592695
9926.08379264
130.258781752
5.50605690316
1.95328967318
1.78726981432
1.77977710784
1.7795226415
1.77953849915
1.78044750935
1.80752991235
2.41102817231
18.1135105874
1399.34584083
8519.54445035
12305.1175995
14255.8294278
130.258782223
5.50605890909
1.95328922265
1.78726977003
1.7797771818
1.77952705919
1.77975377856
1.7886252413
2.04438101938
10.0877956548
658.769908098
11063.7076493
11403.2220461
2.07869386137
1.78
130.2587812
5.50599470098
1.95327689583
1.78726876329
1.77977729585
1.77953448991
1.7800769878
1.79936579889
2.3348397194
20.1058438332
1175.51585592
8743.7100562
1.77415305652
1.78
1.78
130.250258325
130.256571664
130.258664802
130.258714248
130.258715061
130.258715073
130.258715076
130.258715045
130.258715082
130.258715081
130.258715079
130.258715077
130.258715075
130.258715043
130.25872059
130.256571664
7.69337352614
5.55895927964
5.50725691037
5.50611917895
5.50609825155
5.50609845235
5.50609916027
5.50609987414
5.50610064746
5.50610146769
5.50610217881
5.50610276891
5.50610165467
5.50603998783
130.258664803
5.55895946252
2.11103820019
1.95992388862
1.95350827657
1.95330145069
1.95329617002
1.95329612956
1.95329616701
1.95329620368
1.9532962473
1.95329628722
1.95329629889
1.95329576401
1.95328352931
130.258714252
5.5072570902
1.95992394065
1.79494350696
1.78752856039
1.78727717567
1.7872704783
1.78727033693
1.78727033671
1.78727033884
1.78727034161
1.78727034439
1.78727034441
1.78727029556
1.7872692923
130.258715068
5.50611894604
1.9535082574
1.78752855916
1.78003885476
1.77978407124
1.77977726545
1.77977711585
1.77977711316
1.77977711323
1.77977711337
1.77977711354
1.7797771137
1.77977711689
1.77977709486
130.258715084
5.50609833873
1.95330145834
1.7872771766
1.77978407131
1.77952913279
1.77952232206
1.77952217206
1.77952216925
1.77952216921
1.77952216925
1.7795221701
1.77952219578
1.77952250126
1.77952254254
130.258715059
5.50609814834
1.95329617054
1.78727047946
1.77977726553
1.77952232206
1.77951551117
1.77951536115
1.77951535834
1.77951535836
1.77951536054
1.77951544095
1.77951713717
1.77953681898
1.77953660257
130.258715096
5.50609912577
1.95329610109
1.78727033432
1.77977711573
1.77952217205
1.77951536115
1.77951521114
1.7795152084
1.77951521196
1.77951536571
1.7795197893
1.77961007634
1.78063718174
1.78056615257
130.258715102
5.50609984067
1.95329617107
1.7872703374
1.77977711322
1.77952216925
1.77951535834
1.77951520836
1.77951520972
1.77951541144
1.77952246047
1.77971376746
1.78338804007
1.82405168498
1.81900075795
130.258715106
5.50610050567
1.95329620546
1.78727033952
1.77977711328
1.77952216921
1.77951535832
1.77951521173
1.77951540077
1.77952311134
1.77977209597
1.78585706885
1.89128973568
3.2926803121
3.01997226387
130.258715075
5.50610127912
1.95329623824
1.78727034122
1.77977711336
1.77952216924
1.77951536022
1.77951534332
1.77952137955
1.77974467805
1.78611928399
1.91837034335
4.34687977429
72.469277824
53.783673884
130.258715051
5.50610185775
1.95329627301
1.78727034376
1.77977711352
1.7795221698
1.77951542339
1.77951857482
1.77965756336
1.78426290512
1.89703004941
4.28987933947
76.6204806463
8732.33252969
1174.01322515
130.258715082
5.50610238277
1.95329627519
1.78727034283
1.77977711379
1.77952218873
1.77951651784
1.77957094878
1.78167164827
1.84331830987
3.40579075294
60.6381035603
11570.9647844
8581.68884945
6178.71343661
130.258715094
5.50610112323
1.95329574638
1.78727029495
1.77977711589
1.77952237024
1.77952622981
1.77999777595
1.79625801265
2.24311926211
17.4486598893
1266.69741937
8745.58370327
10.4967863299
1.78
130.25872058
5.50604000683
1.9532835543
1.78726929444
1.77977709743
1.77952261653
1.77953640521
1.78036655697
1.80607769163
2.4483650069
21.6725336822
1300.38736403
2.58070981167
1.78
1.78
130.250257539
130.256570916
130.258664051
130.25871349
130.258714292
130.258714293
130.258714283
130.258714274
130.258714245
130.258714215
130.258714204
130.258714194
130.258714185
130.258714184
130.258719844
130.256570916
7.69337479654
5.55896036298
5.5072579833
5.5061203108
5.50609942258
5.50609963182
5.50610034258
5.50610106338
5.50610189236
5.50610267287
5.50610347331
5.50610404956
5.50610289599
5.50604135485
130.258664052
5.55896048494
2.11103850808
1.95992408529
1.9535084577
1.95330163283
1.95329636489
1.9532963116
1.95329634656
1.9532963855
1.95329642691
1.95329647902
1.95329648245
1.95329594471
1.95328373245
130.258713474
5.50725810134
1.95992412899
1.79494353648
1.78752857523
1.78727718992
1.78727049436
1.78727035124
1.78727035076
1.78727035305
1.78727035572
1.78727035967
1.7872703587
1.78727030974
1.78726930831
130.258714279
5.50612006704
1.95350845217
1.78752857539
1.78003885573
1.77978407148
1.77977726591
1.77977711607
1.77977711337
1.77977711345
1.77977711359
1.7797771138
1.77977711364
1.77977711325
1.77977709072
130.258714283
5.50609947185
1.95330165297
1.78727719239
1.7797840718
1.77952913233
1.77952232157
1.77952217157
1.77952216876
1.77952216872
1.77952216873
1.7795221688
1.77952216998
1.77952218406
1.77952220791
130.258714281
5.5060993374
1.95329636997
1.78727049576
1.77977726605
1.77952232157
1.77951551065
1.77951536064
1.77951535782
1.77951535779
1.77951535794
1.77951536139
1.77951544147
1.77951636906
1.77951602642
130.258714258
5.50610038112
1.95329630303
1.78727035072
1.77977711607
1.77952217156
1.77951536064
1.77951521063
1.77951520783
1.77951520801
1.77951521483
1.77951543809
1.77952029545
1.77957603233
1.77954908854
130.258714256
5.50610123229
1.95329636687
1.78727035258
1.77977711347
1.77952216876
1.77951535783
1.77951520783
1.77951520526
1.77951521415
1.77951558096
1.77952680346
1.77976486869
1.7824627474
1.78092243355
130.258714254
5.5061020334
1.95329640592
1.78727035487
1.77977711355
1.77952216872
1.77951535779
1.779515208
1.77951521321
1.77951560592
1.77953067346
1.77997260288
1.78888228721
1.88967918629
1.82255902694
130.258714253
5.50610288293
1.9532964365
1.78727035637
1.77977711362
1.77952216873
1.77951535795
1.77951521291
1.77951549242
1.77952830717
1.77999615926
1.79274130366
2.03521238833
5.99713568826
2.78773134835
130.258714396
5.50610368211
1.95329648825
1.78727036016
1.77977711385
1.77952216885
1.77951535994
1.77951534311
1.7795222351
1.77981968764
1.78993809418
2.04751618603
8.63600756536
340.707802274
19.7596844254
130.258714394
5.5061043551
1.95329649149
1.78727035913
1.77977711386
1.77952216949
1.77951539612
1.77951740804
1.77962234886
1.78383819587
1.91966862771
6.77660438197
459.560475435
2004.56119556
567.225096605
130.258714398
5.50610322227
1.9532959689
1.78727031161
1.77977711329
1.77952217551
1.77951568112
1.77953158601
1.7802010806
1.80228794862
2.40989032981
23.5113408743
1193.2008615
9145.98141263
8483.90208788
130.258719941
5.50604229659
1.95328379031
1.78726931201
1.77977709117
1.77952220772
1.7795159163
1.77953940729
1.78041096869
1.80527709364
2.37409966206
16.6258192913
881.508317739
3.07831975403
1.78
130.250269121
130.256582343
130.258675416
130.258724851
130.258725649
130.258725647
130.258725625
130.258725609
130.258725533
130.2587255
130.258725481
130.25872546
130.258725454
130.25872545
130.258729011
130.256582344
7.69336980938
5.55895295993
5.50725063748
5.50611291521
5.50609198656
5.506096432
5.50609643529
5.50609329179
5.50609377488
5.50609450079
5.50609919031
5.50609559769
5.50609431255
5.50603844756
130.258675416
5.55895320381
2.11103710877
1.95992336545
1.95350767933
1.95330086635
1.95329620341
1.95329573985
1.95329556168
1.95329557247
1.95329562014
1.95329604277
1.95329566746
1.95329513427
1.9532835601
130.25872481
5.50725401871
1.95992341501
1.79494343817
1.78752851597
1.78727713387
1.78727048615
1.78727030738
1.78727029342
1.78727029378
1.78727029701
1.78727032503
1.78727029967
1.78727025123
1.78726929894
130.258725608
5.50611785499
1.95350831246
1.78752854878
1.78003885275
1.77978407025
1.77977726613
1.77977711537
1.77977711207
1.77977711219
1.77977711236
1.77977711318
1.77977711259
1.7797771119
1.77977709073
130.258725609
5.50609560641
1.95330139221
1.78727718207
1.77978407191
1.77952913373
1.77952232306
1.77952217304
1.77952217021
1.77952217017
1.77952217018
1.77952217021
1.77952217026
1.77952217143
1.77952219936
130.258725598
5.5060968383
1.9532962466
1.7872704898
1.77977726634
1.77952232307
1.77951551221
1.7795153622
1.77951535938
1.77951535936
1.77951535935
1.77951535894
1.77951536085
1.7795153923
1.77951540172
130.258725566
5.50609277193
1.95329562838
1.78727030426
1.77977711547
1.77952217304
1.7795153622
1.77951521221
1.7795152094
1.77951520934
1.7795152088
1.77951521547
1.77951538843
1.77951754181
1.77951594249
130.258725549
5.50609357381
1.95329559553
1.78727029634
1.77977711222
1.77952217022
1.77951535938
1.77951520939
1.77951520656
1.77951520599
1.77951521763
1.77951564155
1.77952592894
1.77965697996
1.77954811033
130.258725535
5.50609400464
1.95329560071
1.7872702961
1.77977711219
1.77952217018
1.77951535936
1.7795152093
1.77951520597
1.77951521829
1.7795157981
1.77953615033
1.78003671822
1.78656188268
1.78072783704
130.258725526
5.50609445559
1.95329560624
1.78727029591
1.77977711236
1.77952217018
1.77951535933
1.7795152089
1.77951521416
1.77951569143
1.7795371574
1.78029458901
1.79892057642
2.06108153386
1.8131852545
130.258725732
5.50609520558
1.95329566925
1.78727030095
1.77977711244
1.77952217017
1.77951535899
1.77951521188
1.77951544322
1.77952798328
1.78009049343
1.79976227164
2.31287536863
15.1609648493
2.49429031349
130.258725722
5.5060956593
1.95329566983
1.78727030005
1.77977711248
1.77952217019
1.7795153592
1.77951527123
1.77951897573
1.77971145371
1.78814639619
2.09744027474
16.2229911913
1793.31470997
19.4694697853
130.258725721
5.50609433522
1.95329512037
1.78727024992
1.77977711168
1.77952217123
1.77951536672
1.77951562411
1.77953556531
1.78034282945
1.80621887762
2.49516120867
24.1272008615
1180.50958734
350.164477623
130.25873137
5.5060333004
1.95328293114
1.78726924958
1.77977708957
1.7795221992
1.7795153997
1.7795157803
1.7795391042
1.78038405682
1.80468248411
2.38398667568
19.3982806532
1298.84724394
444.259995631
130.25025735
130.256570781
130.258663912
130.258713343
130.258714141
130.258714134
130.258714115
130.258714097
130.258717722
130.258714054
130.258714028
130.25871401
130.258717678
130.258717675
130.25872111
130.256570781
7.69336968698
5.55895510721
5.50725357981
5.50611579518
5.50609418173
5.50609632174
5.50609633866
5.50609756921
5.50609566091
5.50609613429
5.50609900244
5.50609809836
5.50609644285
5.50603814853
130.258663909
5.55895699396
2.11103761561
1.95992365823
1.95350799609
1.95330109983
1.95329619715
1.95329574154
1.95329608157
1.95329579108
1.95329580002
1.95329603845
1.95329596096
1.95329537679
1.95328354322
130.258713368
5.50725396134
1.9599237411
1.79494348543
1.78752854406
1.78727715136
1.78727048538
1.78727030753
1.78727033102
1.78727031004
1.78727031035
1.7872703247
1.78727032014
1.78727026782
1.78726929742
130.258714164
5.50611771215
1.95350830845
1.78752854897
1.78003885385
1.77978407031
1.77977726545
1.77977711489
1.77977711263
1.7797771122
1.77977711226
1.77977711273
1.77977711259
1.77977711175
1.77977709002
130.258714163
5.50609550005
1.95330138109
1.78727718105
1.77978407127
1.77952913234
1.7795223216
1.77952217157
1.77952216879
1.77952216878
1.77952216879
1.77952216876
1.77952216886
1.77952217036
1.7795221984
130.25871408
5.50609672434
1.95329623717
1.78727048857
1.77977726559
1.7795223216
1.77951551069
1.77951536073
1.77951535796
1.77951535851
1.77951535861
1.77951535791
1.77951535864
1.77951536012
1.77951538959
130.258714101
5.50609616985
1.95329577206
1.78727031016
1.77977711515
1.77952217158
1.77951536074
1.77951521142
1.77951520848
1.77951520791
1.77951520786
1.77951520798
1.77951521156
1.77951526434
1.77951525031
130.258714082
5.50609834476
1.95329606575
1.78727032948
1.77977711289
1.7795221688
1.77951535797
1.77951520846
1.77951520513
1.779515205
1.7795152053
1.77951521508
1.77951547251
1.77951907146
1.77951581456
130.258714063
5.50609670378
1.95329595116
1.78727032155
1.77977711253
1.7795221688
1.77951535847
1.77951520797
1.77951520499
1.77951520527
1.77951521872
1.77951574178
1.77953025838
1.77974596977
1.77954105946
130.258714048
5.50609653374
1.95329572631
1.78727030271
1.77977711214
1.77952216879
1.77951535865
1.77951520884
1.77951520525
1.77951521612
1.77951576794
1.77953817423
1.78019498953
1.79076971624
1.78047025055
130.258713964
5.50609963737
1.95329620026
1.78727034012
1.77977711301
1.77952216882
1.77951535893
1.77951520799
1.7795152099
1.77951552279
1.77953180347
1.78022389472
1.80197215534
2.23653004725
1.80724243654
130.258713955
5.50609820129
1.95329596146
1.7872703224
1.77977711273
1.77952216881
1.77951535795
1.77951520887
1.77951529181
1.77952047293
1.77979463114
1.79198804038
2.25662345851
25.4203083415
2.368687162
130.258713951
5.50609837419
1.95329554332
1.78727027936
1.7797771119
1.77952217035
1.77951535963
1.77951521713
1.77951565504
1.7795362811
1.78032669754
1.80391826374
2.3646948453
16.2595980316
5.92899894256
130.258719565
5.50603762322
1.9532830948
1.78726925668
1.77977708917
1.77952219841
1.77951538953
1.77951524898
1.7795157535
1.77953805726
1.78035517178
1.80427128594
2.38680922156
19.0671994173
6.40075214871
130.250257112
130.256570474
130.258663603
130.258713033
130.25871383
130.258713821
130.258713806
130.258713785
130.258716125
130.258713776
130.25871375
130.258713736
130.258715937
130.258715929
130.25871982
130.256570474
7.69336300911
5.55895494334
5.50725339717
5.50611582956
5.50609391859
5.50609108069
5.50609161077
5.50609773632
5.50609521839
5.50609562506
5.5060931659
5.50609803106
5.50609597422
5.50603103475
130.258663599
5.55895686772
2.11103760905
1.95992365337
1.95350799226
1.95330108488
1.95329557836
1.95329549045
1.95329609086
1.95329577711
1.95329578125
1.95329560264
1.95329594132
1.95329534874
1.95328283513
130.258713145
5.50725169889
1.95992372663
1.79494348461
1.7875285437
1.78727715033
1.78727043985
1.78727029176
1.78727033177
1.78727030928
1.78727030932
1.78727029913
1.78727031885
1.78727026597
1.78726924423
130.258713943
5.50611249978
1.95350772831
1.78752852498
1.78003885363
1.77978407007
1.77977726412
1.77977711412
1.77977711246
1.77977711201
1.77977711203
1.77977711193
1.77977711228
1.77977711134
1.77977708825
130.258713935
5.50609248437
1.95330092699
1.78727714303
1.77978407014
1.77952913225
1.77952232149
1.77952217148
1.77952216871
1.77952216872
1.77952216873
1.77952216869
1.77952216881
1.77952217049
1.77952219851
130.258713865
5.50609130674
1.95329559179
1.78727043956
1.77977726408
1.77952232149
1.77951551062
1.77951536068
1.77951535789
1.77951535823
1.77951535842
1.77951535803
1.77951535911
1.77951535981
1.77951538974
130.258713872
5.5060958927
1.95329566632
1.78727030063
1.77977711443
1.77952217149
1.77951536069
1.7795152112
1.77951520811
1.77951520786
1.77951520801
1.77951520813
1.77951520821
1.77951521057
1.77951524003
130.258713848
5.50609871921
1.9532960578
1.78727032877
1.77977711282
1.77952216872
1.77951535791
1.77951520806
1.77951520508
1.77951520517
1.77951520537
1.77951520565
1.77951520926
1.77951526758
1.77951524395
130.258713827
5.50609619796
1.95329593436
1.78727032056
1.77977711243
1.77952216872
1.77951535812
1.77951520791
1.77951520516
1.77951520533
1.7795152056
1.77951521336
1.77951544841
1.77951906045
1.77951561625
130.258713792
5.50609597348
1.95329567718
1.78727029934
1.77977711171
1.77952216871
1.77951535841
1.77951520902
1.77951520537
1.77951520559
1.7795152138
1.779515581
1.77952682368
1.77971409388
1.77953112254
130.258713709
5.50610007843
1.95329621698
1.78727034108
1.77977711282
1.77952216876
1.77951535904
1.77951520814
1.77951520535
1.77951520997
1.77951547711
1.77952741502
1.77992043437
1.7872892827
1.78003212884
130.258713697
5.50609783359
1.95329593662
1.78727032083
1.7797771126
1.77952216875
1.77951535818
1.7795152081
1.77951520641
1.77951529062
1.77952000525
1.77974050566
1.78772449846
1.9830592416
1.79030127448
130.258713691
5.50609876907
1.95329552446
1.78727027789
1.77977711163
1.77952217049
1.77951535981
1.77951520981
1.77951521376
1.7795155791
1.77953092249
1.78003595961
1.79202136715
1.96864108511
1.8375352069
130.258719209
5.5060376483
1.95328303457
1.7872692518
1.77977708862
1.77952219853
1.77951538971
1.77951523974
1.77951524495
1.77951566099
1.77953281898
1.78009717968
1.79377709332
2.00792576266
1.84398679834
130.250268597
130.256581757
130.258674825
130.258724256
130.25872505
130.258725045
130.258725022
130.258724994
130.258715696
130.258724506
130.258724491
130.258724466
130.258716566
130.258716557
130.258721427
130.256581757
7.69336964476
5.55895247185
5.50725006195
5.50611432972
5.50609133437
5.50609302166
5.50609326015
5.50609704998
5.50609322374
5.50609372067
5.50609443317
5.50609697411
5.50609378282
5.50603268634
130.25867482
5.55895483134
2.11103720432
1.9599233875
1.95350781986
1.95330084298
1.95329567109
1.95329565212
1.95329603403
1.95329558419
1.95329560592
1.95329574247
1.95329573801
1.95329514028
1.95328302434
130.258724387
5.50725177385
1.95992353924
1.79494345336
1.78752852614
1.78727713299
1.78727044144
1.78727030349
1.78727032927
1.78727029771
1.78727029878
1.78727030885
1.7872703058
1.78727025455
1.7872692577
130.258725177
5.50611490682
1.95350782746
1.78752852813
1.7800388533
1.77978407012
1.77977726451
1.77977711473
1.7797771126
1.77977711203
1.7797771121
1.77977711253
1.77977711237
1.77977711133
1.7797770892
130.258725175
5.50609265195
1.95330094157
1.78727714371
1.77978407047
1.77952913354
1.77952232234
1.77952217198
1.77952216944
1.77952216993
1.77952217004
1.77952217011
1.77952217007
1.77952217117
1.77952219929
130.25872515
5.50609569773
1.95329603173
1.78727045578
1.77977726492
1.77952232238
1.77951551141
1.77951536139
1.77951535824
1.77951535806
1.77951535807
1.77951535906
1.77951535809
1.77951535993
1.77951538975
130.258725133
5.50609424968
1.95329604682
1.78727033506
1.7797771155
1.7795221725
1.77951536196
1.77951521082
1.77951520801
1.77951520915
1.77951520907
1.7795152089
1.77951520897
1.77951521056
1.7795152396
130.25872511
5.50609832284
1.95329582795
1.7872703126
1.77977711262
1.77952216964
1.77951535915
1.77951520797
1.77951520642
1.77951520628
1.77951520601
1.77951520505
1.77951520511
1.77951520729
1.77951523691
130.258725098
5.50609300519
1.95329560969
1.78727029908
1.77977711232
1.77952216951
1.77951535796
1.77951520877
1.77951520628
1.77951520597
1.77951520501
1.77951520502
1.77951520735
1.77951524798
1.77951524028
130.258725054
5.5060934445
1.95329604353
1.78727033774
1.77977711328
1.7795221695
1.77951535796
1.77951520795
1.77951520599
1.779515205
1.77951520503
1.77951520873
1.77951533244
1.77951735979
1.77951541487
130.258725171
5.50609955603
1.95329620501
1.78727033714
1.77977711328
1.77952216968
1.77951535795
1.77951520858
1.77951520618
1.77951520501
1.77951520765
1.77951534062
1.77951966075
1.77959696647
1.7795212229
130.258725165
5.50609622125
1.95329564471
1.78727029911
1.77977711244
1.77952217015
1.77951535863
1.77951520869
1.77951520603
1.77951520582
1.77951525917
1.7795177365
1.77960347638
1.78134370265
1.77964038009
130.258725159
5.50609816785
1.95329524163
1.7872702571
1.77977711163
1.77952217149
1.77951535993
1.77951520994
1.77951520735
1.77951521109
1.77951541906
1.77952253679
1.77969419195
1.78196708442
1.78025438791
130.258730727
5.50603706235
1.9532831496
1.7872692612
1.77977708885
1.77952219899
1.77951538973
1.77951523976
1.77951523682
1.77951524189
1.7795154877
1.77952392424
1.77973043067
1.78254512542
1.78033922387
130.250257581
130.2565705
130.258663553
130.25871299
130.258713792
130.258713787
130.258713777
130.25871376
130.258716422
130.258724439
130.258724423
130.258724401
130.258717337
130.25871733
130.258724636
130.2565705
7.69336978478
5.55895440054
5.50725235428
5.5061141918
5.50609571636
5.50609279793
5.50609296887
5.50609625925
5.50609336643
5.50609408328
5.50609400231
5.50609651936
5.50609357047
5.50603218042
130.258663549
5.55895825882
2.11103826494
1.95992360972
1.95350783522
1.95330146237
1.95329566896
1.95329564366
1.95329600012
1.95329563224
1.95329566521
1.95329572997
1.95329575944
1.95329517578
1.95328300884
130.258712995
5.50724997969
1.9599238108
1.79494350842
1.78752852749
1.78727718045
1.7872704406
1.78727030299
1.78727032694
1.78727030011
1.78727030232
1.78727030815
1.78727030791
1.78727025663
1.78726925684
130.25871379
5.50611469406
1.95350776701
1.78752852131
1.78003885209
1.77978407106
1.779777264
1.77977711447
1.77977711236
1.77977711166
1.77977711171
1.77977711211
1.77977711198
1.77977711091
1.77977708882
130.258713785
5.50609099396
1.95330083795
1.78727713312
1.77978406971
1.77952913235
1.77952232162
1.7795221716
1.77952216943
1.77952216993
1.77952217002
1.77952216949
1.77952217005
1.77952217126
1.77952219936
130.258713726
5.50609586801
1.95329603597
1.78727045415
1.77977726437
1.77952232164
1.77951551088
1.77951536139
1.77951535825
1.7795153582
1.77951535815
1.77951535905
1.77951535802
1.77951536006
1.77951538989
130.258713724
5.50609491967
1.95329608517
1.78727033598
1.77977711548
1.77952217164
1.77951536092
1.7795152109
1.77951520817
1.77951520913
1.77951520865
1.7795152082
1.77951520814
1.77951521054
1.77951523978
130.258713699
5.50609808682
1.95329611914
1.78727033711
1.77977711274
1.77952216883
1.77951535865
1.77951520811
1.77951520572
1.77951520581
1.77951520557
1.77951520519
1.77951520533
1.77951520709
1.77951523708
130.258713679
5.506096126
1.95329595413
1.78727032165
1.77977711254
1.77952216949
1.77951535809
1.77951520877
1.7795152059
1.77951520578
1.77951520517
1.77951520522
1.7795152053
1.7795152072
1.77951523688
130.258713753
5.50609474846
1.95329616708
1.78727034239
1.77977711298
1.77952216945
1.7795153581
1.77951520786
1.77951520552
1.77951520516
1.77951520524
1.77951520523
1.77951520623
1.77951522351
1.77951523808
130.25871371
5.50609860044
1.95329619285
1.78727032816
1.77977711236
1.77952216892
1.77951535787
1.77951520855
1.77951520564
1.77951520523
1.77951520523
1.77951520625
1.77951524081
1.77951583467
1.77951528761
130.258713701
5.50609593323
1.95329603085
1.78727033036
1.77977711255
1.77952216892
1.77951535872
1.77951520861
1.77951520578
1.77951520537
1.77951520565
1.77951522583
1.7795159034
1.77952833898
1.77951630933
130.258713709
5.50609743169
1.95329552189
1.78727028795
1.77977711194
1.77952217149
1.77951536008
1.77951520997
1.77951520719
1.77951520699
1.77951520878
1.77951528284
1.77951707831
1.779539894
1.77952240783
130.258719189
5.50603628706
1.95328313671
1.78726926076
1.77977708876
1.77952219911
1.77951538987
1.7795152398
1.779515237
1.7795152369
1.77951523917
1.77951533071
1.77951757136
1.77954655878
1.77952327861
130.250256595
130.256570263
130.258663335
130.258712769
130.258713573
130.258713566
130.258713562
130.258713549
130.258722955
130.258724541
130.258724523
130.258724512
130.258720418
130.258720362
130.258719282
130.256570263
7.69336896047
5.55895434315
5.50725228578
5.50611207916
5.50609577367
5.50609005029
5.50609032543
5.50609152084
5.50609287705
5.50609387752
5.50609117807
5.50609496932
5.50609293967
5.50602903809
130.258663331
5.55895833831
2.1110382756
1.95992360525
1.95350765614
1.95330147747
1.95329601478
1.95329542513
1.95329550251
1.95329553966
1.95329558188
1.95329549347
1.95329567629
1.95329506004
1.95328277025
130.258712799
5.50725360366
1.95992391864
1.79494351107
1.78752851625
1.78727718166
1.78727047926
1.78727028854
1.78727029369
1.78727029131
1.78727029405
1.78727029317
1.78727030335
1.78727024641
1.78726924319
130.25871359
5.50611177925
1.95350814416
1.78752856122
1.78003885363
1.77978407098
1.77977726525
1.77977711394
1.7797771115
1.77977711137
1.77977711144
1.77977711162
1.77977711177
1.7797771105
1.77977708827
130.2587136
5.50609486787
1.95330108402
1.78727714934
1.77978407047
1.7795291323
1.77952232158
1.7795221716
1.77952216946
1.77952217003
1.77952217007
1.77952216921
1.7795221701
1.77952217165
1.77952219973
130.258713571
5.50609539151
1.95329599755
1.78727045787
1.77977726464
1.77952232159
1.77951551088
1.77951536202
1.77951535933
1.77951535923
1.77951535928
1.77951535924
1.77951535935
1.77951536082
1.77951539065
130.258713562
5.50609482336
1.95329604589
1.78727033266
1.77977711532
1.7795221716
1.77951536093
1.77951521208
1.7795152092
1.77951520931
1.77951520867
1.77951520821
1.77951520811
1.77951521074
1.77951524075
130.258713541
5.50609790237
1.95329612069
1.78727033786
1.77977711272
1.77952216881
1.77951535871
1.77951520915
1.77951520575
1.77951520581
1.7795152056
1.77951520626
1.77951520619
1.77951520787
1.77951523765
130.258713525
5.50609623948
1.95329594885
1.78727032116
1.77977711241
1.77952216954
1.77951535913
1.7795152093
1.77951520591
1.77951520582
1.77951520621
1.77951520598
1.77951520623
1.77951520796
1.77951523781
130.258713636
5.50609443558
1.95329574458
1.78727030644
1.77977711204
1.77952216948
1.77951535922
1.77951520926
1.77951520555
1.77951520623
1.77951520602
1.77951520616
1.77951520632
1.77951520738
1.77951523762
130.258713589
5.50609823887
1.95329610011
1.7872703369
1.77977711278
1.77952216892
1.77951535924
1.77951520865
1.77951520566
1.77951520607
1.77951520617
1.77951520626
1.77951520566
1.77951521055
1.77951523715
130.258713584
5.50609548949
1.95329603043
1.78727033073
1.7797771124
1.77952216888
1.77951535918
1.77951520866
1.77951520584
1.77951520615
1.7795152063
1.77951520568
1.77951520954
1.77951528445
1.77951524389
130.258713596
5.50609702373
1.95329552933
1.78727028808
1.77977711171
1.77952217166
1.77951536076
1.7795152107
1.77951520732
1.7795152079
1.77951520763
1.77951520746
1.77951522188
1.77951540732
1.77951529381
130.258719018
5.5060343209
1.95328291793
1.78726924724
1.77977708838
1.77952219972
1.77951539062
1.77951524065
1.77951523764
1.77951523782
1.77951523749
1.77951523746
1.77951525611
1.77951549677
1.77951533056
130.250265314
130.25657045
130.258663474
130.258712918
130.258713714
130.258713721
130.258713714
130.258713705
130.258723312
130.258724479
130.258724464
130.258724447
130.258720713
130.25872064
130.258719188
130.256570451
7.69336848963
5.55895146617
5.50724911938
5.50611594822
5.50609541238
5.50609176606
5.50609271533
5.50609450562
5.50609052652
5.50609287538
5.50609270362
5.50609449817
5.50609048481
5.50602944932
130.25866347
5.55895715223
2.11103716834
1.95992334785
1.95350808123
1.95330144844
1.95329612203
1.95329568034
1.95329562071
1.95329591064
1.95329595777
1.95329567293
1.95329570967
1.95329537792
1.95328281708
130.258712908
5.50725351793
1.95992380572
1.79494349858
1.78752853478
1.7872771787
1.78727048386
1.78727030631
1.78727029722
1.78727032957
1.7872703077
1.78727030374
1.78727030609
1.7872702801
1.78726924573
130.258724813
5.50611343618
1.95350822275
1.78752856353
1.7800388546
1.77978407137
1.7797772654
1.77977711472
1.77977711189
1.77977711286
1.77977711232
1.77977711221
1.77977711208