/*--------------------------------*- C++ -*----------------------------------*\
| =========                 |                                                 |
| \\      /  F ield         | OpenFOAM: The Open Source CFD Toolbox           |
|  \\    /   O peration     | Version:  2406                                  |
|   \\  /    A nd           | Website:  www.openfoam.com                      |
|    \\/     M anipulation  |                                                 |
\*---------------------------------------------------------------------------*/
FoamFile
{
    version     2.0;
    format      ascii;
    arch        "LSB;label=32;scalar=64";
    class       volScalarField;
    location    "0.01";
    object      p;
}
// * * * * * * * * * * * * * * * * * * * * * * * * * * * * * * * * * * * * * //

dimensions      [0 2 -2 0 0 0 0];

internalField   nonuniform List<scalar> 
29768
(
0.0714591777393
0.0714459150324
0.0714257013901
0.0713837304628
0.0713475561566
0.0712802707145
0.0712332172582
0.0711515264935
0.0711023767944
0.0710222485704
0.0709830403763
0.0709222841624
0.0709065921791
0.0708800889201
0.0708990358259
0.0714504726982
0.0714432943495
0.0714245414207
0.0713843287167
0.0713466339197
0.0712821571129
0.0712320119907
0.0711555611622
0.0711007326349
0.0710296195478
0.0709811838779
0.0709338791364
0.0709051618754
0.0708950013655
0.0708984245416
0.0714133037142
0.0714093735127
0.0714047650375
0.0713618347333
0.0713257693723
0.0712469050215
0.071202861363
0.0711004480035
0.0710600894843
0.0709487334386
0.0709276285605
0.0708261543799
0.0708401205496
0.0707701175623
0.070828286303
0.0713875786499
0.0713845815897
0.071379404269
0.0713432455248
0.0712932656003
0.0712303617578
0.0711557689488
0.0710895259165
0.0709908227207
0.0709512268527
0.0708318147976
0.0708507955216
0.070724546028
0.0708150872307
0.0707116631103
0.0713128424131
0.0713073648973
0.0713022550767
0.0712368475516
0.0711935970168
0.0710636056726
0.0710197463606
0.0708300740138
0.0708079717394
0.0705641801621
0.0705964047598
0.0703188955801
0.0704368776311
0.0701783912289
0.0703854450643
0.0712740203178
0.0712708352123
0.0712608796959
0.0712157251947
0.0711368565655
0.071062118253
0.070931045027
0.0708681202653
0.07066461592
0.0706791246594
0.0703798057513
0.0705549222418
0.0701668016621
0.0705336259067
0.0701429231065
0.0711688430461
0.0711600549246
0.0711521214995
0.0710478853609
0.0709943415483
0.0707760358234
0.0707370563772
0.0703829581565
0.070408851014
0.0698819765876
0.0700574949972
0.0693441390553
0.0697574790082
0.0689602628616
0.0695635336446
0.0711239322195
0.0711193691557
0.0711021919505
0.0710394307493
0.0709157658854
0.0708196038425
0.0705913928903
0.0705411289407
0.0701265013296
0.0702853218349
0.0695498186248
0.0701881890724
0.0690503200415
0.0703442424805
0.0690965425611
0.0710032957681
0.0709897028482
0.0709796715331
0.0708184083758
0.0707576630924
0.0703962487009
0.0703883414342
0.0697242283306
0.0699002325545
0.0687271152308
0.0693541404162
0.0674181823708
0.0688600851973
0.066127870437
0.0679110597307
0.0709615563755
0.0709544819891
0.0709286209516
0.0708371557458
0.0706556853702
0.0705224233217
0.0701489919236
0.0701264606768
0.0693137401919
0.0698259828647
0.0680072108434
0.0699953968252
0.0663227200589
0.0701335443194
0.0664908608954
0.0708473740404
0.0708282765917
0.070817773158
0.0705851545123
0.0705257622099
0.0699597707079
0.0700357712682
0.0688294531097
0.0693958119287
0.0667716966249
0.0686989121855
0.0632393336335
0.0669443974813
0.0606451584625
0.0632604200578
0.0708192319334
0.0708082324696
0.0707761711811
0.070638781319
0.0704087826288
0.0701951774163
0.0696747866422
0.0696337839713
0.0682403274879
0.0693775527914
0.065076235379
0.0691346539194
0.0611440914653
0.0678822107266
0.0625302328411
0.0707377190592
0.0707145905568
0.0707042668678
0.0704099969964
0.0703532560455
0.0695782164471
0.069776609062
0.0678382043736
0.0691707076698
0.0636159040758
0.0677776242522
0.0572954986948
0.0658889703929
0.0507621808132
0.0508320522667
0.0707323898489
0.0707159365824
0.0706871103564
0.0704793546494
0.0702641191237
0.0698541408435
0.0693876476131
0.0689284587009
0.0673441904519
0.067843588739
0.0622048179971
0.0675320377804
0.0501166401022
0.0789362188007
0
0.0707067260926
0.0706845461475
0.0706697517678
0.0703756167664
0.070278153468
0.0694993722609
0.0696091898649
0.0675326990873
0.0686759531964
0.0613708817065
0.065820176064
0.0495013326634
0.0788272980788
0
0
0.070078634847
0.0700638606926
0.0700456182888
0.0699989245371
0.0699673139962
0.069893789673
0.0698541140953
0.0697663123751
0.0697260049976
0.0696412668234
0.0696103090818
0.069547111082
0.0695378506443
0.0695098091741
0.0695344211483
0.0700770930073
0.0700675333761
0.0700499603002
0.0700065683143
0.0699737596662
0.0699074992946
0.0698649048427
0.0697904923096
0.0697429501475
0.0696800050143
0.0696344428294
0.0696016274088
0.0695684629396
0.0695744679219
0.0695677943401
0.070024331093
0.0700182273065
0.0700152794785
0.0699625819681
0.069932241679
0.0698377950648
0.0698049062299
0.0696807024876
0.069656479523
0.0695176762824
0.0695166905846
0.0693850545494
0.069422563375
0.0693250503109
0.0694121112331
0.0700238954927
0.070019229267
0.0700158916747
0.0699812365653
0.0699400039694
0.0698892073169
0.0698244286584
0.0697913326561
0.0696910791575
0.0697195494206
0.0695683514444
0.0696965117099
0.0694933910006
0.0697128362972
0.069497397673
0.0699155114316
0.0699060544777
0.0699033466408
0.0698156005636
0.0697866714627
0.0696149612719
0.0696013682506
0.0693441355749
0.0693703185241
0.0690292145572
0.0691281404826
0.0687320845057
0.0689321374862
0.0685642175679
0.0688721078065
0.0699230484004
0.069918838492
0.0699148047716
0.0698796716361
0.0698181530006
0.0697789875266
0.0696617690614
0.0696921633552
0.0694646419495
0.0696798268176
0.0692602854851
0.0697798600473
0.0691230246485
0.0699202842323
0.0691447517288
0.0697668597858
0.0697514896543
0.0697508172078
0.0696056117873
0.0695874548827
0.0692819264756
0.0693191297174
0.0688083292777
0.0689648676445
0.068187291757
0.0685567486088
0.0675064487699
0.0681562644071
0.0670443753546
0.0679156545105
0.0697878552849
0.0697828358532
0.0697781552385
0.069737161033
0.0696437268272
0.0696204827653
0.0694068874313
0.0695645018279
0.0690624662822
0.0697184532112
0.0686263124452
0.0702153297843
0.0682759199487
0.0708555309045
0.068448812386
0.0696029619672
0.0695791015421
0.06958634009
0.069356614858
0.069373802604
0.0688486956723
0.0690158553552
0.0680261983103
0.0685304671386
0.0667729903876
0.0679382933706
0.0651046661406
0.0671949613116
0.0636782592932
0.0661199855032
0.0696396312335
0.0696321750821
0.069627903311
0.0695695866563
0.0694368254402
0.0694246209361
0.0690610619649
0.0694370520201
0.0683937465987
0.0700100353773
0.0672623393775
0.0717286498427
0.0659618712847
0.0739321513217
0.0667976267948
0.0694568459231
0.0694230774768
0.0694459579856
0.0691115655046
0.0692000140235
0.0683647509719
0.0687923389827
0.0669984044478
0.0682956802022
0.0644913478879
0.0678423348164
0.0601917635269
0.0663126452383
0.0568462080551
0.0608769232105
0.0695063585996
0.0694933552895
0.0694943178932
0.0693891982916
0.0692381485892
0.0691720066767
0.0686716206509
0.0692423766517
0.0673992622859
0.0706173412761
0.0642413944309
0.0742167083832
0.0599486952083
0.0749075348538
0.0634915299063
0.0693650165591
0.0693238070845
0.0693658470577
0.0689461913619
0.0691185686864
0.0679845458537
0.068751911444
0.0659844991879
0.0685888668879
0.0614246610821
0.0691560113448
0.0534196870558
0.0674545861583
0.049910033997
0.0502001784669
0.0694197713893
0.0693968931563
0.0694140291114
0.0692069444259
0.0691266639737
0.0687914672204
0.0684597375396
0.068605789714
0.0666932954393
0.0706612159771
0.060395911547
0.0738636412015
0.0496797262749
0.0605209575861
0
0.0693562493708
0.0693163260076
0.0693653116769
0.0689582897945
0.0691276828504
0.0680113805783
0.0687817116253
0.0658991941098
0.068757544457
0.0597580388928
0.0689437420631
0.0491268134178
0.0589841634694
0
0
0.0676951278188
0.0676837506758
0.0676665072303
0.0676304663987
0.0676000156117
0.0675422887064
0.0675034664911
0.0674334600705
0.0673942570596
0.0673254852592
0.0672963967208
0.0672437850864
0.0672362532938
0.0672120038078
0.0672352005644
0.067688046312
0.0676819214661
0.0676660184842
0.0676312444247
0.0675997737777
0.0675439146625
0.0675031552698
0.0674362261596
0.0673936236398
0.0673296412227
0.0672954373498
0.0672494490834
0.0672352846528
0.0672189335602
0.0672346320578
0.067655097806
0.0676521603342
0.0676488273507
0.0676127487495
0.0675823114764
0.0675167755357
0.0674798311346
0.0673968375047
0.0673628406932
0.067276545669
0.0672573000435
0.0671845554832
0.0671919663871
0.0671480898976
0.0671905057867
0.0676342601881
0.0676318577851
0.0676282586723
0.0675958360927
0.0675555613643
0.0674978497661
0.0674411408699
0.0673746080243
0.067306098685
0.0672494585466
0.0671781665581
0.0671510807941
0.0670926379816
0.067109313686
0.0670832787201
0.0675681676035
0.067564295056
0.0675604799743
0.0675072253661
0.0674695057436
0.0673670808279
0.0673261290034
0.0671858414958
0.0671553799929
0.0669934986063
0.0669914029394
0.0668354368534
0.0668790424431
0.0667622972862
0.0668627970738
0.0675369618035
0.0675345740791
0.0675276782453
0.0674858642566
0.0674246136584
0.0673503371187
0.0672569391838
0.0671727076037
0.0670460875163
0.0669787352551
0.0668275438501
0.0668063927173
0.0666599942198
0.0667101700178
0.0666144701078
0.067444798827
0.0674389928396
0.0674326103035
0.067351921402
0.0673014198311
0.0671421893843
0.0670906146905
0.0668613994032
0.0668277598097
0.0665493534164
0.0665582819785
0.0662843209721
0.06635738652
0.0661639444621
0.0663184565719
0.0674088957685
0.067405658803
0.0673941195296
0.0673352120399
0.067243017442
0.0671385408092
0.0669888788256
0.0668664584887
0.0666470379803
0.0665337990469
0.0662579173981
0.0661662504742
0.0659135351552
0.0658750973779
0.0657282013889
0.0673045791952
0.0672963273202
0.0672872506243
0.0671708096721
0.067102164388
0.0668674934652
0.0667957109413
0.0664472297834
0.0663894161744
0.0659678287093
0.0659311110966
0.0655935141988
0.06555804525
0.0655432961473
0.0655441304302
0.0672713861469
0.067266664254
0.0672499085069
0.0671652780527
0.0670353396871
0.0668823911346
0.0666618851028
0.0664622023615
0.0661267596154
0.0658512806531
0.0654723744835
0.0649029694353
0.0648261516169
0.0636961371275
0.063897871928
0.0671744171769
0.0671640669068
0.0671517771349
0.0669978206449
0.0669025730864
0.0665895762886
0.066469107787
0.0660089291222
0.065827480239
0.0653684460008
0.0649439644017
0.0651506277662
0.0639526959909
0.0653999878167
0.0642482529309
0.0671523174454
0.0671457114588
0.0671249014866
0.0670065194924
0.0668434017965
0.0666200424028
0.0663400953886
0.0659982637974
0.065599432768
0.064878540954
0.0647830766285
0.0620675778557
0.0632667468198
0.0574627179482
0.0586654626998
0.0670850330216
0.067074124098
0.0670576717827
0.0668792232908
0.0667448993597
0.0663899002934
0.0661574743138
0.0656927154708
0.065107899584
0.0650700582347
0.0629600637739
0.0653506819577
0.0591241231639
0.066147541544
0.0619629503149
0.0670813444166
0.0670727864189
0.06705129295
0.0668970449444
0.0667215913633
0.0664178683925
0.0661209301366
0.0656250515745
0.0652541445396
0.0640514596339
0.0648509705083
0.0585122812949
0.0653960975911
0.0460927501528
0.0468126626874
0.0670628495052
0.0670534900633
0.0670335491723
0.0668599415535
0.0666858571235
0.066363095599
0.0659835702724
0.065678533085
0.0644290857955
0.0653346328773
0.0594702437218
0.0667053344474
0.0480656694189
0.0567843960871
0
0.0663030693249
0.0662915760702
0.0662781047641
0.0662416717919
0.0662190280932
0.0661613761701
0.0661342662642
0.0660648172778
0.0660397195359
0.0659714209349
0.0659564902474
0.0659029988446
0.0659074099087
0.0658790408694
0.0659109497333
0.0663027935843
0.0662954605137
0.0662826129617
0.0662484580442
0.0662254043335
0.0661725900157
0.0661445018114
0.0660834662018
0.066055334763
0.0660000276347
0.065978314252
0.0659419839571
0.0659345963973
0.0659244601756
0.065940082013
0.0662599577922
0.0662557869732
0.0662548867252
0.0662149629994
0.0661930249229
0.0661214057489
0.066098451312
0.0660053524926
0.0659900559591
0.0658879286716
0.0658910092195
0.065796250912
0.0658286862024
0.0657593323243
0.0658288564213
0.0662625455725
0.0662591274036
0.0662587412673
0.0662301295835
0.0662044690367
0.0661584732008
0.0661232732174
0.0660807376721
0.0660338344874
0.0660192483495
0.0659574580994
0.0659905592349
0.0659162013371
0.065994249478
0.0659247133332
0.0661746075397
0.0661682076225
0.066167616434
0.0661034051092
0.0660816602388
0.0659575270097
0.0659459767181
0.0657659029479
0.065780398825
0.0655522655487
0.0656134194966
0.065361748263
0.0654886793768
0.0652633410932
0.0654640778689
0.0661854365426
0.0661823034134
0.0661830881325
0.0661516205812
0.066118439017
0.0660710195296
0.0660180318983
0.0659937045907
0.0659037887353
0.0659560141232
0.0658030767441
0.0659786585607
0.0657486577548
0.0660316586297
0.0657601422873
0.0660591375512
0.0660488578279
0.066049735225
0.0659467878145
0.0659302113392
0.0657191508393
0.0657352761156
0.0653999328824
0.0654830704246
0.0650065032518
0.0652038419286
0.0646070627184
0.0649576259245
0.0643614844504
0.0648563645556
0.066082236714
0.0660783532737
0.0660816548575
0.0660415732965
0.0659990449315
0.0659438620938
0.0658649917518
0.0658695452816
0.0657046610605
0.065894621301
0.0655562460431
0.0660757062395
0.0654819376889
0.0663108064797
0.0655196652776
0.0659333761653
0.0659176151969
0.0659238772841
0.0657664373463
0.0657680598672
0.0654232030796
0.0655054330328
0.0649012127306
0.0651475632566
0.0641731592413
0.0647139143291
0.0633034817596
0.0642444582949
0.0626327618985
0.0638545789651
0.0659699817294
0.0659641799743
0.0659720741795
0.0659135400586
0.0658648816373
0.0657858132904
0.0656824019554
0.0657165257239
0.0654479858416
0.0658846123086
0.0652128031508
0.0665139237335
0.065121921254
0.0674338429701
0.0653182434231
0.0658233183399
0.0658014453879
0.0658177976352
0.0655962579677
0.0656344881791
0.0651137686981
0.0653200819121
0.0643062928708
0.0648864374099
0.0629935499239
0.0643410125877
0.0610324586957
0.0635933052403
0.0589377039189
0.0619382406603
0.0658703103946
0.0658607784384
0.0658761509176
0.0657807708546
0.0657417637946
0.0655921895154
0.0655028406687
0.0654901775901
0.0651694913178
0.0658556987545
0.0647828362193
0.0675117117027
0.0645930215796
0.069415796126
0.0653772171551
0.0657567723774
0.065730561462
0.0657596110605
0.0654882077244
0.0655711732127
0.0648927864537
0.0652550118924
0.0637986020417
0.0648641408405
0.0616870073467
0.0644976328336
0.0574702115747
0.0627349212476
0.0533739783389
0.0568268350768
0.0658068015061
0.065791459836
0.0658170485753
0.0656597303191
0.0656630265661
0.0653489937632
0.0653874178361
0.0650337615641
0.0649910656259
0.0651994298849
0.0644286632241
0.0675388336355
0.0635280843817
0.0696918620118
0.0656100671396
0.0657547269972
0.0657292130604
0.0657661986723
0.0654990987667
0.06559567846
0.0649178997567
0.0653236192552
0.0638183807372
0.0651016587193
0.0614445283304
0.0654436942251
0.0551634729284
0.065598337856
0.0465300242598
0.047059513597
0.0641622028602
0.064153681446
0.0641417131597
0.0641146986527
0.0640943138731
0.0640510828589
0.0640262449573
0.0639738550834
0.0639507664799
0.0638990607963
0.0638853714949
0.0638448577751
0.0638483214348
0.0638273507268
0.0638535345894
0.0641571725745
0.0641527828734
0.064141869686
0.06411565386
0.0640947585569
0.0640524982797
0.0640268325197
0.0639758697465
0.0639514355462
0.063901681013
0.0638860654226
0.063847976426
0.0638490569315
0.0638308679074
0.0638545231837
0.0641326492853
0.064130974358
0.0641298181534
0.0641040718989
0.0640837731639
0.0640370173292
0.0640132141281
0.0639549656313
0.0639344820347
0.0638754117842
0.0638662848067
0.0638179576063
0.0638278303493
0.0637995374082
0.0638335393969
0.0641178491026
0.0641164317197
0.0641155994495
0.0640912498914
0.0640661064886
0.064021330023
0.0639887995307
0.0639344936865
0.0639002606938
0.0638479577045
0.0638202808634
0.0637821165139
0.0637713508773
0.063757644361
0.0637730521869
0.0640690071418
0.0640670850678
0.0640661000631
0.064030863233
0.0640056505446
0.0639384907755
0.0639113225617
0.0638232351681
0.0638029880668
0.0637076238882
0.0637049738417
0.0636199842457
0.0636447522053
0.0635861749318
0.0636445129103
0.0640470302302
0.0640458593031
0.0640437179086
0.0640128363527
0.0639767524277
0.0639188963683
0.0638696172695
0.0637978609004
0.0637411348021
0.06366924341
0.0636167778194
0.0635600653009
0.0635303930663
0.0635070052432
0.0635168773165
0.0639798476041
0.0639772575264
0.0639750282455
0.0639249385569
0.0638910696264
0.0637947166685
0.0637589653413
0.0636296985317
0.0636028553459
0.0634608960674
0.06345607745
0.063332246546
0.0633610640924
0.0632813772373
0.0633520291998
0.0639548872492
0.0639534965492
0.0639495788321
0.0639074724718
0.0638559775168
0.0637763462531
0.0637033858007
0.0636000008354
0.0635122706494
0.0633961049095
0.0633151444459
0.0631955577035
0.0631619417356
0.063067820535
0.0631043131108
0.063880338724
0.0638771300512
0.0638735409399
0.0638057977404
0.0637595720476
0.0636290792027
0.0635774938461
0.0634030374108
0.0633549325399
0.0631737606002
0.0631376912341
0.0630151263223
0.0629975938288
0.0629911242452
0.0629837073937
0.0638576906933
0.0638559367388
0.0638500352592
0.0637926093667
0.0637230648558
0.063612795977
0.0635125804136
0.0633585499288
0.0632395330655
0.0630308093325
0.0629459146485
0.0626371193372
0.0627050430894
0.0622889102582
0.0624938103019
0.0637901795946
0.0637867931882
0.0637816305343
0.063697368838
0.0636343235497
0.0634739324457
0.0633927159129
0.0631885630311
0.0630810776076
0.0629182801443
0.0627571108169
0.0628225951569
0.0625695809286
0.0630726461544
0.0626076567392
0.0637756030887
0.0637734917007
0.0637660094842
0.0636911833824
0.063605191197
0.0634590137798
0.0633350953871
0.0631150443104
0.0629775014667
0.0626176128713
0.0626054962674
0.0618593262413
0.0624154275108
0.0607917152435
0.0616401188583
0.0637305407514
0.0637276770554
0.0637208575918
0.063627051661
0.0635438115572
0.0633707446615
0.0632414746458
0.0630461204181
0.0628140857661
0.062780168293
0.062294266349
0.0629200334606
0.0619586416661
0.0634328910586
0.0623408304077
0.0637289117164
0.0637265610302
0.0637184933875
0.0636288093576
0.0635330489925
0.0633580301166
0.0632169702313
0.0629536780468
0.0627902581692
0.0623452057428
0.0623680554135
0.0612391322144
0.0621664472266
0.0590875892376
0.0602161563925
0.0637185669368
0.0637166999084
0.06370925887
0.0636171300846
0.0635195743139
0.0633560744013
0.0631842757661
0.0630266417171
0.0626619841029
0.0627770011313
0.0618490417782
0.0630674169093
0.0606513642805
0.0632155925111
0.0621352385995
0.0627648667659
0.0627566486035
0.0627483296825
0.0627222731863
0.0627093198902
0.062667892032
0.0626540765633
0.0626036221721
0.0625939013487
0.0625430183997
0.0625431086826
0.0625007829286
0.0625163162393
0.0624895406129
0.0625246255988
0.062764892251
0.0627597226609
0.0627518533237
0.0627270428253
0.0627140289474
0.0626750649315
0.0626612585765
0.062614834807
0.062604490671
0.0625594045132
0.0625574595358
0.06252227541
0.0625337042446
0.062514058145
0.0625430231264
0.0627348674395
0.0627322439166
0.0627328148381
0.0627056925139
0.0626929564302
0.0626444268902
0.0626325912277
0.0625703040155
0.0625653063288
0.0624981337492
0.0625067800986
0.0624453352387
0.0624739964822
0.0624286175707
0.062481208134
0.062737202919
0.0627347696392
0.0627360118249
0.0627140475112
0.0627013140316
0.0626634504579
0.0626501193106
0.0626075001209
0.062595677605
0.0625603119746
0.062551831088
0.0625337889505
0.0625313534179
0.0625328556837
0.0625424319028
0.0626761110952
0.0626723429196
0.0626733168155
0.0626329823418
0.0626200313094
0.0625432645387
0.062537115176
0.0624300442647
0.0624398483176
0.0623112439145
0.0623479486735
0.0622139590367
0.062287222325
0.0621715687736
0.0622855934309
0.0626844192647
0.0626820847296
0.062684815407
0.0626593350331
0.0626457181069
0.0626009842237
0.0625865429483
0.0625396573271
0.0625232759289
0.062494619134
0.0624725882208
0.0624791943836
0.0624493380508
0.0624886627091
0.0624610160876
0.0625976624132
0.0625918599448
0.062593916387
0.0625329601151
0.0625220650309
0.062400878518
0.0624072691713
0.0622261525049
0.0622659369855
0.062028566465
0.0621216433009
0.0618493881423
0.0620114847453
0.061755577466
0.0619882039725
0.0626146267896
0.0626117189369
0.0626171797561
0.0625839777779
0.06257058047
0.0625116664567
0.0624983107505
0.0624407602544
0.0624209502857
0.0624027268432
0.0623607693961
0.0624189399461
0.0623370274138
0.0624634717373
0.0623520980837
0.0625137329322
0.0625051876559
0.0625103223346
0.0624220293947
0.0624186277701
0.0622344594096
0.062267836115
0.0619720577401
0.0620736706498
0.0616482083379
0.061859479331
0.0613178737654
0.0616679080176
0.0611137569655
0.0615830083406
0.0625401369787
0.0625360422432
0.0625455468592
0.0624990498763
0.0624891584641
0.0624047661727
0.0624000491842
0.0623179113929
0.0623053193417
0.0622954068493
0.0622375417794
0.0623905254031
0.0622271418635
0.0625516622273
0.0622565256827
0.0624420545431
0.062430585034
0.0624409138773
0.0623225566823
0.0623337974665
0.0620742132378
0.0621535683085
0.0617043203702
0.0619144596771
0.0611982937146
0.0616331564735
0.060598604402
0.0613327251839
0.0601381117229
0.0610561053114
0.0624758150646
0.062469773378
0.0624842524283
0.0624168832529
0.0624165757094
0.0622874785979
0.0623081256585
0.0621638832389
0.0621932124528
0.0621415153977
0.0621207552117
0.0623682178958
0.0621580767097
0.0628939343327
0.0622326096439
0.0624005819682
0.0623871304607
0.0624037935917
0.0622633189709
0.0622926658163
0.0619711115151
0.0621046827892
0.0615111743857
0.0618586478165
0.0608130868727
0.0615721739389
0.0598254546477
0.0612393050521
0.0587469820386
0.0604018218365
0.0624369672793
0.0624283133715
0.0624474211069
0.0623523130222
0.0623683712882
0.0621699445818
0.0622398422667
0.0619576348063
0.062099066751
0.0618150655559
0.0620024418021
0.0619925837333
0.0620578433607
0.0629287351918
0.0622189515799
0.0624021625288
0.0623889554224
0.0624103104898
0.0622703128554
0.0623093456163
0.0619847872294
0.0621418851492
0.0615342454461
0.0619425619646
0.0608267228702
0.0617588738245
0.0597171905786
0.0616147061201
0.058135939143
0.0595318027569
0.060800031397
0.0607943219039
0.0607874815924
0.0607693600676
0.06075846193
0.0607294085314
0.0607172635908
0.0606819141394
0.0606726730782
0.0606373791563
0.0606358357669
0.0606072070204
0.0606178326322
0.0606011468877
0.0606267589077
0.0607969343738
0.0607941340693
0.0607879816242
0.0607703641915
0.0607592240561
0.0607307064621
0.0607182731121
0.0606835973424
0.060673901797
0.060639424574
0.0606372506137
0.0606095492392
0.0606194132353
0.060603704107
0.0606285211716
0.0607809099129
0.0607800954459
0.0607806973604
0.0607641994752
0.0607534207917
0.0607231781363
0.0607115713269
0.0606739695447
0.0606659817188
0.0606278500678
0.0606284158685
0.0605967701689
0.0606102751496
0.0605906460313
0.0606196724252
0.0607717890883
0.0607710879709
0.0607721794228
0.0607562460221
0.0607435801185
0.060713494625
0.0606989158682
0.060661589384
0.0606493867566
0.0606118956154
0.0606073354323
0.0605769905321
0.0605854673662
0.0605683720098
0.0605936910278
0.0607400693751
0.0607393352059
0.0607403984988
0.0607196286096
0.0607064071349
0.0606663471197
0.0606532526487
0.0606014809552
0.0605940706509
0.0605390112145
0.0605435071091
0.0604946465443
0.0605164254868
0.0604818124947
0.0605237611278
0.0607267135177
0.0607262935995
0.0607271546038
0.0607077854995
0.0606906010046
0.0606529864642
0.060632410145
0.060584613609
0.0605656751095
0.0605160571748
0.0605058303858
0.060463560449
0.0604702871018
0.0604445022382
0.0604743304591
0.0606835869987
0.0606827578615
0.0606834662714
0.0606556691893
0.0606383723187
0.0605844588514
0.0605677983157
0.06049696064
0.060487755274
0.0604112252656
0.0604172797899
0.0603487258516
0.0603767803978
0.0603273930007
0.0603811229937
0.060668818857
0.0606684335512
0.0606689849926
0.0606438349588
0.0606205099623
0.0605712097786
0.0605425680703
0.0604781419028
0.0604505096338
0.0603798216745
0.0603638770615
0.060297062122
0.06030674119
0.0602578988768
0.0603020745672
0.0606217312525
0.0606208463878
0.060621340488
0.0605855287747
0.0605628697287
0.0604934545373
0.0604709561897
0.0603798456091
0.0603649147348
0.0602684867304
0.060269653705
0.0601889801887
0.0602138724048
0.0601628842532
0.060215823517
0.0606089722767
0.0606085693659
0.0606088192375
0.0605763205408
0.0605460702417
0.0604819210939
0.0604443948744
0.0603576324973
0.0603214125778
0.0602185560866
0.0602015380484
0.0600884015034
0.0601168112076
0.0600115328995
0.0600932379738
0.0605671854828
0.0605664582384
0.060566843062
0.0605239008971
0.0604948256757
0.0604121330417
0.0603804995752
0.0602745344228
0.0602457782674
0.060143140522
0.0601226388861
0.0600614851559
0.0600541589896
0.0600538994579
0.0600605374843
0.0605599150418
0.0605595504329
0.0605596286552
0.0605195203389
0.0604830762256
0.0604035004657
0.0603582809501
0.0602473985128
0.0602049341154
0.0600634250612
0.060053876009
0.0598718297469
0.0599482171276
0.0597332016104
0.0598873993244
0.0605328364834
0.0605324723049
0.0605328887341
0.0604858783649
0.0604503479713
0.0603609813757
0.0603172192497
0.0602081147205
0.0601551505203
0.0600687600882
0.0600009797559
0.0600082570488
0.0599237838451
0.0600632519646
0.0599605117184
0.0605338451615
0.0605335108959
0.0605337064671
0.0604876935622
0.0604476135018
0.0603567644851
0.0603065405234
0.0601803635852
0.060131007409
0.0599704975619
0.0599576554542
0.0597420278234
0.0598412005942
0.05955999819
0.0597705513506
0.0605284916511
0.0605285227199
0.0605293245091
0.0604826040007
0.0604435353747
0.0603555555187
0.060303244478
0.0601996565873
0.0601268356392
0.0600569951239
0.0599455437154
0.0599944479489
0.0598379067647
0.0600699180982
0.0599606668153
0.0593895523786
0.0593841605807
0.0593797930211
0.0593627856512
0.0593568211488
0.0593297550892
0.0593248207429
0.0592916259209
0.0592910337708
0.0592569832353
0.0592642825678
0.0592348251211
0.0592527946695
0.0592323322391
0.0592630152859
0.0593894888036
0.0593861525222
0.0593820532632
0.0593656467683
0.0593596557459
0.0593336915691
0.0593289282145
0.0592974114327
0.0592968483874
0.05926502305
0.0592718440757
0.0592449443466
0.0592618812304
0.0592438026222
0.0592725779718
0.0593709213268
0.0593693789142
0.0593706573227
0.0593538291114
0.0593478082217
0.05931787469
0.059313645532
0.0592756414158
0.059276872376
0.059236385246
0.0592469983466
0.0592102364578
0.0592334689029
0.0592059904571
0.0592434995688
0.0593719778661
0.0593703857792
0.0593720213306
0.0593570474111
0.0593516212454
0.0593251388107
0.0593219087488
0.0592898158595
0.0592912078534
0.05925959372
0.0592679165268
0.059242357702
0.0592595753876
0.059243226671
0.0592711176287
0.0593346392975
0.0593326557602
0.0593341952776
0.0593114141697
0.0593050649767
0.0592623234742
0.0592604657382
0.0592028654881
0.0592104329115
0.0591442908777
0.0591667141947
0.0591008984033
0.0591425977483
0.0590873845256
0.0591499629058
0.0593390386983
0.0593374908374
0.0593400228546
0.0593225186961
0.0593175698236
0.059285441831
0.0592841436156
0.0592450309101
0.0592494347866
0.0592116291686
0.059223025583
0.0591939774379
0.0592131710194
0.0591956558277
0.0592248362468
0.0592868175709
0.0592839905549
0.0592861327135
0.0592540407092
0.059248359511
0.0591861736762
0.0591893225342
0.0591012180791
0.0591204819602
0.0590127457027
0.0590562709968
0.0589412315872
0.059015214261
0.0589117709068
0.0590172629889
0.0592962179278
0.0592943400239
0.0592985295098
0.059276180258
0.0592726168559
0.0592304742364
0.0592331711194
0.0591813629471
0.0591920834935
0.0591427171447
0.0591609837059
0.0591256045028
0.0591492391296
0.0591303979103
0.0591610950074
0.0592366153014
0.0592326482816
0.0592363062449
0.059192498765
0.0591894843249
0.0591017191728
0.0591145701643
0.058983894762
0.0590240595039
0.0588537639884
0.0589343353266
0.0587391830892
0.0588689836931
0.0586828844933
0.0588597443178
0.0592517060763
0.0592491507364
0.0592556102196
0.0592259894011
0.0592252373532
0.0591680441472
0.0591781723144
0.0591060624545
0.059129168077
0.0590596589452
0.0590928675897
0.0590456178553
0.0590802384086
0.0590598234942
0.0590924885973
0.0591949582556
0.0591896822949
0.059195705227
0.0591397443015
0.0591417978242
0.0590259298229
0.0590537674292
0.0588726234578
0.0589444645659
0.0586923723543
0.0588301861394
0.0585181284946
0.0587353487013
0.058418145304
0.0587010353246
0.0592146727857
0.0592112212066
0.0592201907276
0.0591809779792
0.0591846288218
0.0591067751806
0.0591286992779
0.0590250963293
0.0590699346437
0.0589623838985
0.0590266445545
0.0589477353373
0.0590129285358
0.0589809661245
0.0590243361333
0.0591719247644
0.0591659446745
0.0591746947432
0.0591101766649
0.059118513198
0.0589811499207
0.0590256314111
0.0588023916833
0.0589095088744
0.0585805220734
0.0587849494344
0.0583450938739
0.0586689669844
0.0581856441428
0.0585843397346
0.0591943551166
0.0591899535257
0.0592005464755
0.0591510191249
0.0591596564367
0.0590575202433
0.0590939904066
0.0589462651315
0.0590219390924
0.0588444330023
0.0589630339844
0.058794142143
0.0589337300417
0.0588242291253
0.0589314278723
0.0591750998093
0.0591690750122
0.0591798621151
0.0591149982979
0.0591276342109
0.0589878875719
0.059041334414
0.0588127488969
0.05893663937
0.0585948402646
0.0588289469125
0.0583572790752
0.0587245886428
0.0581822937371
0.0585812017118
0.0575469566285
0.0575434595111
0.0575402384082
0.0575291264609
0.0575246610531
0.057506761863
0.057502805417
0.0574809080487
0.0574799123857
0.0574577938528
0.0574624145071
0.0574440057251
0.0574568034814
0.0574451448909
0.0574669541304
0.0575452827649
0.0575436467957
0.0575408095222
0.0575300147507
0.0575254170545
0.0575078256856
0.0575037511772
0.0574821934968
0.0574810339534
0.057459270828
0.0574637230421
0.0574456577892
0.057458066659
0.0574467564476
0.0574682728972
0.0575357644185
0.0575354231418
0.0575367606644
0.0575270694694
0.0575226836312
0.0575046206384
0.0575008671796