/*--------------------------------*- C++ -*----------------------------------*\
| =========                 |                                                 |
| \\      /  F ield         | OpenFOAM: The Open Source CFD Toolbox           |
|  \\    /   O peration     | Version:  2406                                  |
|   \\  /    A nd           | Website:  www.openfoam.com                      |
|    \\/     M anipulation  |                                                 |
\*---------------------------------------------------------------------------*/
FoamFile
{
    version     2.0;
    format      ascii;
    arch        "LSB;label=32;scalar=64";
    class       surfaceScalarField;
    location    "0.01";
    object      phi;
}
// * * * * * * * * * * * * * * * * * * * * * * * * * * * * * * * * * * * * * //

dimensions      [0 3 -1 0 0 0 0];

oriented        oriented;

internalField   nonuniform List<scalar> 
85565
(
6.74590526707e-09
7.69695110042e-09
0.000882063549296
1.3409603859e-08
7.86900983616e-09
0.000885866618399
1.96800460729e-08
8.40406502772e-09
0.000885956496454
2.53838955319e-08
9.12531210736e-09
0.000885960126921
3.02461789681e-08
1.02314747865e-08
0.00088598656221
3.37547748026e-08
1.18624716414e-08
0.00088595910247
3.59934665963e-08
1.34985012855e-08
0.000885958707765
3.62748765568e-08
1.58537190944e-08
0.000885984211352
3.49697405275e-08
1.78530431259e-08
0.000885957231756
3.13426518067e-08
2.06425397631e-08
0.000885956136411
2.60904036148e-08
2.26379569685e-08
0.000885982394174
1.86455423225e-08
2.5256360939e-08
0.000885954877804
1.00510291212e-08
2.66137164616e-08
0.00088596269588
1.24531470993e-10
2.81910048243e-08
0.000885964745941
2.82196038036e-08
0.00088596216897
7.01329334434e-09
1.51874854692e-08
0.000885866637132
1.38795560478e-08
1.57081340628e-08
0.000888883531279
2.05139929793e-08
1.66829942696e-08
0.000889008428182
2.64991134817e-08
1.82263556077e-08
0.000889025769706
3.16732177517e-08
2.04272262924e-08
0.000889054326586
3.5433542169e-08
2.37565200259e-08
0.000889027176597
3.7874500755e-08
2.71309327871e-08
0.00088902666552
3.83080947259e-08
3.18706199782e-08
0.000889052423769
3.70072673475e-08
3.61209744787e-08
0.000889025154897
3.33624944499e-08
4.16391276631e-08
0.000889024256741
2.77974602678e-08
4.60939537713e-08
0.000889050370408
2.01325505463e-08
5.1062081726e-08
0.000889022995377
1.08999778306e-08
5.44263935163e-08
0.000889030582137
6.14711720589e-10
5.70471469772e-08
0.000889032886532
5.77555638481e-08
0.000889030050255
7.42502884262e-09
2.25114649248e-08
0.000885956464463
1.47200857659e-08
2.33953181643e-08
0.000889008395585
2.19971265476e-08
2.46251414075e-08
0.000889181212912
2.85960894924e-08
2.70661360267e-08
0.000889212510147
3.43385633502e-08
3.04212343795e-08
0.000889245201996
3.86610385975e-08
3.55684900568e-08
0.000889218967543
4.15639128904e-08
4.08045205379e-08
0.000889218534445
4.23816021845e-08
4.82050849404e-08
0.00088924429531
4.13012697357e-08
5.4879391219e-08
0.000889216949574
3.75753153275e-08
6.37479949173e-08
0.000889215949774
3.17528747904e-08
7.07923652708e-08
0.000889242042401
2.32065495893e-08
7.91765783716e-08
0.000889214468293
1.3060006794e-08
8.44167201712e-08
0.000889222118188
1.10149898803e-09
8.92964745447e-08
0.000889224184092
9.01101386202e-08
0.000889221512738
8.04138027755e-09
2.92765712918e-08
0.000885960168397
1.59571508327e-08
3.05941962966e-08
0.000889025776488
2.38556050055e-08
3.21408660953e-08
0.000889212538913
3.10696935589e-08
3.55175756977e-08
0.000889248554725
3.74489885567e-08
4.00851692835e-08
0.000889282739094
4.23494928565e-08
4.71421892333e-08
0.000889256910051
4.57817641055e-08
5.44462073877e-08
0.000889256461979
4.70067933312e-08
6.46185624871e-08
0.000889282284186
4.60379749114e-08
7.42944923445e-08
0.000889254765969
4.23430834487e-08
8.64337286213e-08
0.000889253898062
3.5763674031e-08
9.73165686611e-08
0.000889279700168
2.67934739256e-08
1.0833635354e-07
0.000889252408194
1.48773748789e-08
1.17455841789e-07
0.000889259632068
2.28525242742e-09
1.22713194572e-07
0.00088926211999
1.25818828978e-07
0.000889258967603
9.5666818629e-09
3.5013735781e-08
0.000885986493838
1.8974913261e-08
3.67604397139e-08
0.00088905425996
2.83091315764e-08
3.86312658476e-08
0.00088924519223
3.7057822652e-08
4.29785165845e-08
0.000889282672574
4.50106445001e-08
4.87983262516e-08
0.000889317329467
5.15408961699e-08
5.80623954574e-08
0.000889291452471
5.65828848805e-08
6.7548265203e-08
0.00088929102876
5.91059384267e-08
8.14851589761e-08
0.000889316492356
5.93312034038e-08
9.42865936936e-08
0.000889289049416
5.55524989503e-08
1.12156541713e-07
0.00088928750645
4.88978967891e-08
1.26640628211e-07
0.000889313571637
3.69868351998e-08
1.44922397615e-07
0.000889285214489
2.28250877395e-08
1.5650774858e-07
0.000889293002611
3.92758599706e-09
1.68171203058e-07
0.000889294217576
1.70727075869e-07
0.000889291924432
1.06471608405e-08
3.97687326573e-08
0.000885959174722
2.13142381535e-08
4.18814851421e-08
0.000889027188181
3.20234520962e-08
4.40925744368e-08
0.000889219025149
4.211294438e-08
4.94925369148e-08
0.000889256904123
5.15428254701e-08
5.66319134144e-08
0.000889291596489
5.93984769027e-08
6.8278883855e-08
0.000889265790218
6.5824725811e-08
8.03261774148e-08
0.000889265145754
6.94014449735e-08
9.81785845145e-08
0.000889290782723
7.0137956219e-08
1.1551991861e-07
0.000889262839928
6.66429075546e-08
1.38552314912e-07
0.00088926184617
5.80654432651e-08
1.60468129408e-07
0.00088928690381
4.55743430779e-08
1.82600066378e-07
0.000889259820086
2.61629861048e-08
2.03914374408e-07
0.000889265914695
7.24114791815e-09
2.13250399818e-07
0.000889269105971
2.23587086187e-07
0.000889264796588
1.3240680913e-08
4.26743210491e-08
0.000885958602418
2.64452329428e-08
4.51878091551e-08
0.0008890265518
3.96183426374e-08
4.77364144043e-08
0.000889218523556
5.25230317826e-08
5.4124088157e-08
0.00088925632298
6.48858412332e-08
6.25705328888e-08
0.000889291037215
7.62561785063e-08
7.68325025569e-08
0.000889264813716
8.6205631245e-08
9.14727276935e-08
0.000889264270713
9.34555257607e-08
1.14884401751e-07
0.000889288915816
9.77369728561e-08
1.36557128872e-07
0.000889261396026
9.56788919182e-08
1.7049775358e-07
0.000889258281729
8.8931489105e-08
1.98053146355e-07
0.00088928452722
7.06758757607e-08
2.37990620129e-07
0.000889253578976
4.86867793725e-08
2.62432354925e-07
0.0008892621359
1.14942151772e-08
2.93458723489e-07
0.000889260065122
3.01821026718e-07
0.000889259230867
1.46877250613e-08
4.42786881647e-08
0.00088598431879
2.96219974975e-08
4.70501847189e-08
0.000889052428498
4.48455656752e-08
4.98196517024e-08
0.000889244401899
5.97124008118e-08
5.7314523973e-08
0.000889282245049
7.45980931015e-08
6.68864174924e-08
0.000889316778926
8.80835081633e-08
8.40453501197e-08
0.000889290707863
1.01015397912e-07
1.01365506951e-07
0.000889289640178
1.10176377601e-07
1.30568534906e-07
0.000889314912093
1.16572044069e-07
1.58657753275e-07
0.000889286010925
1.15162326858e-07
2.0188567659e-07
0.000889284913852
1.04889127504e-07
2.44389861403e-07
0.000889307815842
8.59138041607e-08
2.90824139726e-07
0.000889282030029
4.77950148798e-08
3.43448944347e-07
0.000889283947361
1.69724310922e-08
3.57698284085e-07
0.000889290890808
3.91830870135e-07
0.00088928211739
1.82517313921e-08
4.32472358905e-08
0.000885957097268
3.67801652154e-08
4.62765558388e-08
0.000889024980776
5.54712417939e-08
4.9268733768e-08
0.000889216955458
7.4830457363e-08
5.73877907835e-08
0.000889254505247
9.43653249253e-08
6.79699247645e-08
0.00088928911541
1.14817749342e-07
8.73993129772e-08
0.00088926214341
1.34494928818e-07
1.07266718951e-07
0.000889261522343
1.53574027445e-07
1.43486668925e-07
0.00088928430449
1.69136855179e-07
1.76834876008e-07
0.000889256992912
1.76898622646e-07
2.40026401344e-07
0.000889249475937
1.76886180024e-07
2.89966738571e-07
0.000889276905832
1.53043972701e-07
3.80342098633e-07
0.000889237095052
1.22365812871e-07
4.33714076959e-07
0.000889248979483
2.62130463341e-08
5.40680240505e-07
0.000889233230281
5.71270170976e-07
0.000889238225829
1.99146968407e-08
4.07260750484e-08
0.000885956279697
4.04638846527e-08
4.37885323255e-08
0.000889024231698
6.18153463474e-08
4.66474989712e-08
0.000889216131692
8.35726978678e-08
5.56107701773e-08
0.000889253762194
1.07092221652e-07
6.62637039503e-08
0.000889288036242
1.30300027501e-07
8.86612761284e-08
0.000889261489902
1.56379050385e-07
1.09394652259e-07
0.000889259736845
1.78016089984e-07
1.53832616176e-07
0.000889284282322
2.0205196388e-07
1.92316985589e-07
0.000889253265261
2.10167697942e-07
2.73311109235e-07
0.00088925195962
2.11690945488e-07
3.45648055959e-07
0.000889268028849
1.87420582371e-07
4.48752167952e-07
0.000889247030627
8.66154292398e-08
6.15167026314e-07
0.000889228596726
1.18033766732e-08
6.23804840555e-07
0.000889260890006
7.58997941898e-07
0.000889223081076
2.40092601551e-08
3.50747057892e-08
0.000885982253912
4.89468716539e-08
3.79921635369e-08
0.000889050131348
7.44182454558e-08
4.07923566935e-08
0.000889242100945
1.02609402802e-07
4.91741973386e-08
0.000889279262936
1.32361415883e-07
5.98845374688e-08
0.000889313819612
1.68416451473e-07
8.17945062022e-08
0.000889285583033
2.05285486859e-07
1.03834648687e-07
0.000889285162858
2.5215834826e-07
1.51920858845e-07
0.000889304007258
2.95326239258e-07
1.94295798582e-07
0.000889277839431
3.41689953366e-07
3.03351926718e-07
0.000889257880217
3.81937638315e-07
3.7151224626e-07
0.000889289355701
3.75619966848e-07
6.05876691306e-07
0.000889216436785
5.23228522439e-07
5.52234542024e-07
0.000889249149366
3.20098182304e-07
1.17700374518e-06
0.000889141573262
1.60130020468e-06
0.000889183821475
2.55397021207e-08
2.80423172693e-08
0.000885955052098
5.23184316524e-08
3.05919202174e-08
0.000889022908508
8.06379345245e-08
3.26622369075e-08
0.00088921475379
1.10990050281e-07
4.09733016174e-08
0.000889252071116
1.46195859557e-07
4.94030314248e-08
0.000889286119756
1.84281191682e-07
7.29995197274e-08
0.000889258737907
2.33356187232e-07
8.96844353998e-08
0.000889256193422
2.79034654347e-07
1.48326017858e-07
0.000889278816719
3.47561154125e-07
1.80846248085e-07
0.000889243566378
3.73712613212e-07
3.33945555584e-07
0.000889238645552
4.49309751628e-07
4.00147647688e-07
0.000889236371159
4.23683496609e-07
6.0932952695e-07
0.000889230426697
3.58039859485e-08
1.23723052374e-06
0.000889154193138
-7.74527816845e-08
1.04761077591e-06
0.000889377146104
1.50621329345e-06
0.000889212988731
2.90894504975e-08
1.82132255667e-08
0.000885962584392
6.00420215359e-08
1.99526331569e-08
0.000889030301163
9.20070549094e-08
2.15616804805e-08
0.000889222273987
1.29822590536e-07
2.71086233158e-08
0.000889259020419
1.70965505064e-07
3.41056741999e-08
0.000889293637862
2.28900086835e-07
5.0142412232e-08
0.00088926380695
2.88651227762e-07
6.64957509683e-08
0.000889264083895
3.90689561444e-07
1.08018402458e-07
0.000889276150332
4.75550227935e-07
1.49478314601e-07
0.000889252205332
6.5490189842e-07
3.00990687582e-07
0.000889201409589
6.68627968821e-07
4.16757749904e-07
0.000889250000016
8.62652842351e-07
9.27136426695e-07
0.000889098509232
8.42177530017e-07
1.16101394391e-06
0.000889348540733
2.47145017918e-07
0
0.000889206525754
0
0.000889123905471
2.9922214279e-08
7.60372473175e-09
0.000885964938318
6.1823689505e-08
8.44454047508e-09
0.000889032717684
9.57682218885e-08
8.83603058122e-09
0.000889224584514
1.34463503748e-07
1.2458694033e-08
0.000889261503531
1.80887420016e-07
1.45878565788e-08
0.000889295626767
2.37854186432e-07
2.75885854093e-08
0.000889266785246
3.16167032928e-07
2.85188461549e-08
0.000889264213738
4.03613969248e-07
7.58706378765e-08
0.000889280701555
5.69781790732e-07
5.47179392457e-08
0.00088923785043
4.5935792211e-07
4.8694753502e-07
0.00088919605363
1.25964129781e-06
-1.25080747862e-07
0.000889218236326
1.26311542026e-06
7.49014612592e-07
0.000889336503843
0
0
0.00088918172924
0
0
0
0
0
3.14012679388e-08
0.000885962101165
6.52654780855e-08
0.000889029790517
1.00646272346e-07
0.000889221744132
1.43919005182e-07
0.000889258335156
1.92629645218e-07
0.00088929290018
2.67361796704e-07
0.000889262312033
3.47237596266e-07
0.000889262562849
5.12978714376e-07
0.000889268955229
6.4835604528e-07
0.000889242495987
1.43311083321e-06
0.00088919334435
1.3211583968e-06
0.000889273601861
0
0.000889256080233
0
0
0
0
0
6.7837995675e-09
7.4374568989e-09
0.000882049327984
1.3392155224e-08
7.68592212547e-09
0.000885852323954
1.95619229435e-08
8.23481402699e-09
0.000885942091728
2.5054475396e-08
9.02833956679e-09
0.000885945605883
2.97601694919e-08
1.00458153359e-08
0.000885971810551
3.30530214883e-08
1.16581718085e-08
0.000885944151292
3.52178872651e-08
1.3130401346e-08
0.000885943412337
3.53870474662e-08
1.53839678499e-08
0.000885968658056
3.41264243779e-08
1.72434155281e-08
0.000885941248788
3.05566112912e-08
1.97988105196e-08
0.000885939907231
2.5424755603e-08
2.18161953349e-08
0.000885965709645
1.82273120825e-08
2.40121441272e-08
0.000885938062908
9.75045565454e-09
2.56657877518e-08
0.00088594550675
2.0745019168e-10
2.66630565274e-08
0.000885947625688
2.71691258792e-08
0.000885944883627
7.13435225846e-09
1.45450643856e-08
0.000885852395006
1.38505929086e-08
1.52244415381e-08
0.000888869276285
2.01905801679e-08
1.62543015914e-08
0.000888994068491
2.58124357313e-08
1.78960950897e-08
0.000889011279875
3.06957388468e-08
1.98997550896e-08
0.000889039589117
3.41194850027e-08
2.3191931076e-08
0.000889012218857
3.63721412795e-08
2.62199352264e-08
0.000889011323086
3.65919554234e-08
3.07669551352e-08
0.000889036820714
3.52595347612e-08
3.4678173081e-08
0.000889009052294
3.16505649769e-08
3.97143056137e-08
0.00088900794994
2.62359494688e-08
4.4098513569e-08
0.000889033502421
1.89741325055e-08
4.81659295766e-08
0.000889006103117
1.00522220719e-08
5.19969521556e-08
0.000889013172585
4.8629427447e-10
5.34101461719e-08
0.000889015705069
5.50262762784e-08
0.000889012532336
7.6195500213e-09
2.14159056636e-08
0.000885941973927
1.48114716595e-08
2.24925156287e-08
0.000888993935374
2.18359379754e-08
2.3696916349e-08
0.000889166745633
2.8159262561e-08
2.62068296901e-08
0.000889197875886
3.37102365518e-08
2.92447463194e-08
0.000889230305822
3.78204758027e-08
3.4332926657e-08
0.000889203716091
4.06686969978e-08
3.9029393786e-08
0.000889202876539
4.13700181967e-08
4.62013866495e-08
0.000889228159319
4.03843016801e-08
5.23006738234e-08
0.000889200312542
3.66417762256e-08
6.06134412413e-08
0.000889198792905
3.10091957625e-08
6.73977463938e-08
0.000889224375484
2.25266551663e-08
7.47279808533e-08
0.000889196388508
1.25448786827e-08
8.04282723405e-08
0.000889203668367
7.45338701643e-10
8.37902337527e-08
0.000889205603259
8.5678873488e-08
0.000889202867199
8.10258204518e-09
2.77447942858e-08
0.000885945736781
1.5742096871e-08
2.93300023872e-08
0.000889011299268
2.31415055076e-08
3.08316012929e-08
0.000889198004618
2.97758238809e-08
3.42619583367e-08
0.000889233865071
3.56731977967e-08
3.83590803211e-08
0.000889267727171
4.00187379806e-08
4.53054297657e-08
0.000889241591784
4.30731247424e-08
5.18394548194e-08
0.000889240597295
4.3888841242e-08
6.15811321642e-08
0.000889266088478
4.2718395508e-08
7.04466718278e-08
0.000889237790158
3.9049543395e-08
8.14312935427e-08
0.000889236748795
3.25350955099e-08
9.20575872532e-08
0.000889261554497
2.44162320026e-08
1.00766725782e-07
0.000889234488032
1.28609462065e-08
1.10989333383e-07
0.000889240626001
1.97018502076e-09
1.1293770055e-07
0.000889243862992
1.18464878898e-07
0.000889239786222
9.82022857351e-09
3.28886676059e-08
0.000885971529587
1.91326837612e-08
3.49897448155e-08
0.000889039287538
2.81794526341e-08
3.67658799874e-08
0.000889230210975
3.6582612112e-08
4.1141763287e-08
0.000889267389394
4.43466204655e-08
4.62676399439e-08
0.000889301656675
5.06049003593e-08
5.53883837363e-08
0.000889275111001
5.56912882268e-08
6.37175595444e-08
0.000889274064021
5.80172417505e-08
7.71958702984e-08
0.000889298551403
5.85603015613e-08
8.8640798582e-08
0.00088927031196
5.46042538795e-08
1.05303716399e-07
0.000889267589791
4.84184205542e-08
1.18996918906e-07
0.000889292817852
3.62321192039e-08
1.347943019e-07
0.000889263372914
2.21996519495e-08
1.47463866117e-07
0.000889270560247
3.14929319018e-09
1.5495236174e-07
0.000889271252956
1.60562376691e-07
0.000889268971971
1.04170647463e-08
3.73326067587e-08
0.000885944313565
2.05318589552e-08
3.98772339029e-08
0.000889012185666
3.04897143871e-08
4.19626000195e-08
0.000889203870358
3.96121566216e-08
4.74342224982e-08
0.000889241488998
4.82013499761e-08
5.36468280834e-08
0.000889275627873
5.49072419135e-08
6.51467650525e-08
0.0008892493257
6.04932761499e-08
7.56180080476e-08
0.000889247659011
6.29442718451e-08
9.27050526006e-08
0.000889272822278
6.29909834274e-08
1.08195909492e-07
0.000889243237822
5.91934972521e-08
1.28693626596e-07
0.000889242253463
5.03587615799e-08
1.49841813461e-07
0.00088926489335
3.983989604e-08
1.66133498169e-07
0.000889238999462
2.07919504035e-08
1.90370206691e-07
0.000889242055983
6.83160080766e-09
1.89988961086e-07
0.000889248029415
2.07643653981e-07
0.000889240681407
1.34182205907e-08
3.95824764318e-08
0.000885942934169
2.64327093411e-08
4.26447824788e-08
0.000889010769521
3.9242829959e-08
4.50178157569e-08
0.000889202657995
5.16968945659e-08
5.14141755353e-08
0.000889239888727
6.38304511211e-08
5.85872755447e-08
0.000889273962965
7.47800399126e-08
7.25616375473e-08
0.000889246448993
8.48686802621e-08
8.49365547398e-08
0.000889244863257
9.16870160207e-08
1.07331634565e-07
0.000889267470613
9.67226533029e-08
1.25990412293e-07
0.0008892385656
9.40909507651e-08
1.56905984616e-07
0.000889232700767
8.87562845484e-08
1.82280935594e-07
0.000889257422467
6.92681187142e-08
2.15688538883e-07
0.000889223511772
4.75648170985e-08
2.43189416699e-07
0.00088923101968
9.89123013643e-09
2.60467390004e-07
0.000889227259924
2.79635795942e-07
0.000889226571963
1.39619920122e-08
4.11488105142e-08
0.000885968790299
2.78780418958e-08
4.45337930113e-08
0.000889036623187
4.1945081483e-08
4.70525246645e-08
0.000889228299915
5.51828719643e-08
5.47252188671e-08
0.000889265695971
6.85959491077e-08
6.2682736146e-08
0.00088929927013
7.96884798323e-08
7.98101496184e-08
0.000889272366553
9.07872361442e-08
9.40981770878e-08
0.000889269379516
9.6886298738e-08
1.22194557635e-07
0.000889293949825
1.01257516109e-07
1.46071708954e-07
0.000889261558108
9.79268111673e-08
1.84094077048e-07
0.000889261056175
8.60854787353e-08
2.23915164719e-07
0.000889278022618
7.09494943961e-08
2.56548367786e-07
0.000889256305887
3.29539448815e-08
3.15303123191e-07
0.000889249828845
1.760575184e-08
3.00427504547e-07
0.000889266278572
3.57496085745e-07
0.000889247992456
1.82052395702e-08
3.94799270612e-08
0.000885940560739
3.63183859286e-08
4.32381912984e-08
0.000889008162969
5.44295740381e-08
4.59437322284e-08
0.000889199952817
7.31056201343e-08
5.4045234643e-08
0.000889236508927
9.21518221913e-08
6.26156553824e-08
0.000889270136021
1.11777444582e-07
8.15085156044e-08
0.000889240819137
1.31379588305e-07
9.74439702501e-08
0.000889238574121
1.49258841725e-07
1.31350471131e-07
0.000889257269016
1.6598786198e-07
1.58573961419e-07
0.000889227761345
1.72045490867e-07
2.13594207429e-07
0.000889213917842
1.75955498553e-07
2.57912896771e-07
0.000889238997783
1.46024428485e-07
3.32547855487e-07
0.000889191026246
1.15948864624e-07
3.92567272461e-07
0.000889201790554
2.47088340449e-08
4.44778803625e-07
0.000889180118565
5.14882213512e-07
0.000889184282547
1.852574953e-08
3.73212203009e-08
0.000885939912474
3.74183601201e-08
4.11528581007e-08
0.00088900742415
5.70438351634e-08
4.3595687593e-08
0.000889198854006
7.61419146024e-08
5.29615001955e-08
0.000889235747585
9.71567678427e-08
6.11625966814e-08
0.000889268474166
1.15575062746e-07
8.40257553364e-08
0.000889240554084
1.37854732199e-07
9.94906125953e-08
0.00088923541023
1.51558222565e-07
1.43006836866e-07
0.000889258922175
1.70129237528e-07
1.72475133011e-07
0.000889220792743
1.6984340496e-07
2.44057586019e-07
0.000889221781776
1.62354357933e-07
3.09820869577e-07
0.000889223609529
1.3715802775e-07
3.89533365455e-07
0.00088921524112
3.93422020955e-08
5.42961324238e-07
0.000889176018024
3.18195418137e-08
4.71120989702e-07
0.000889242070091
6.613172628e-07
0.000889174342621
2.35223316609e-08
3.12143816863e-08
0.000885964838232
4.76444604004e-08
3.49435131913e-08
0.000889032218284
7.20725263099e-08
3.73880672625e-08
0.000889223880238
9.90965724622e-08
4.57247035813e-08
0.00088925947541
1.27521781731e-07
5.38922736782e-08
0.000889292664442
1.61654582768e-07
7.4971285292e-08
0.000889260504398
1.96918371881e-07
9.15481797032e-08
0.000889257841205
2.3995359795e-07
1.34918444842e-07
0.000889269060091
2.82704800643e-07
1.6734144861e-07
0.000889240221605
3.2562631727e-07
2.52216661683e-07
0.000889206799223
3.74377338776e-07
3.13162183294e-07
0.000889237263017
3.64155115944e-07
4.72446199356e-07
0.000889143745639
5.40199327067e-07
4.41836185477e-07
0.000889174229829
2.56098312917e-07
8.7373279032e-07
0.00088902306185
1.38021819954e-06
0.000889065663567
2.34861536572e-08
2.49549741177e-08
0.000885937825159
4.79477583533e-08
2.83224137698e-08
0.000889005067717
7.39030945574e-08
2.99086589659e-08
0.000889196277592
1.00350356101e-07
3.89077743634e-08
0.000889232440504
1.31699429011e-07
4.43829100908e-08
0.000889264279749
1.61301374383e-07
6.94708042174e-08
0.000889234636145
2.03671484108e-07
7.85468629494e-08
0.000889226824305
2.31835837484e-07
1.37757186855e-07
0.000889247813318
2.91370654979e-07
1.51137518193e-07
0.000889200235107
3.00994052049e-07
2.78770024919e-07
0.000889202468459
3.45781953955e-07
3.34951588294e-07
0.000889169793332
3.2595781712e-07
5.06288023258e-07
0.000889216408571
-1.64166344964e-07
1.09164783288e-06
0.000888994505033
-2.34768652238e-07
8.71101542594e-07
0.000889450379198
1.21396999855e-06
0.000889119524389
2.79152603517e-08
1.5096412739e-08
0.000885944527497
5.74748509455e-08
1.75338631873e-08
0.000889011529831
8.76617653914e-08
1.89258984958e-08
0.000889203069559
1.23477253423e-07
2.44424728909e-08
0.000889237669942
1.61606435338e-07
2.93224772267e-08
0.000889270568816
2.15147476903e-07
4.47374390874e-08
0.000889234998953
2.68926094427e-07
5.62675853676e-08
0.000889232584244
3.56853690823e-07
9.36441366795e-08
0.000889232335418
4.30573919657e-07
1.21937525917e-07
0.000889207684758
5.6536697543e-07
2.12596010004e-07
0.000889132790057
6.46906751483e-07
3.04102902648e-07
0.000889199308469
7.22438976551e-07
6.33979521365e-07
0.000888895284861
6.80262979651e-07
1.15485420545e-06
0.000889327509815
1.90157855255e-07
0
0.000888537561389
0
0.000888438480816
2.75030245944e-08
5.46043143057e-09
0.000885947071076
5.67450341089e-08
6.92292509801e-09
0.000889014086318
8.78714910502e-08
7.13467269607e-09
0.000889205249003
1.21896201098e-07
1.14495869437e-08
0.000889240471415
1.63158010711e-07
1.16794758833e-08
0.000889272007648
2.07814851312e-07
2.74526662539e-08
0.000889239412864
2.74447032556e-07
2.31744920511e-08
0.000889230674307
3.23041929249e-07
8.20723840999e-08
0.000889243678081
4.4991532423e-07
4.44148504259e-08
0.000889188499291
3.7013779647e-07
3.13823484724e-07
0.000889174603249
1.06552441262e-06
-2.45298513724e-07
0.000889072250515
1.12053645078e-06
5.23969658928e-07
0.000889391501193
0
0
0.000888325178343
0
0
0
0
0
2.94501018225e-08
0.000885943907068
6.12961439488e-08
0.000889010762024
9.41831440686e-08
0.000889202181296
1.34570635973e-07
0.000889236419094
1.78729690569e-07
0.000889268970382
2.47523049878e-07
0.000889231828746
3.19223637651e-07
0.00088922865587
4.70684666954e-07
0.000889220118864
5.95085181556e-07
0.000889194282017
1.07593252801e-06
0.000889068771018
1.04612880932e-06
0.000889215109371
0
0.000888554677759
0
0
-0
0
0
5.9825149998e-09
6.87375194703e-09
0.000882036471656
1.18985939818e-08
7.03092538738e-09
0.000885839376779
1.74508200039e-08
7.50564430678e-09
0.00088592903371
2.25061501297e-08
8.16830115055e-09
0.000885932382104
2.67772182851e-08
9.152888955e-09
0.000885958386443
2.98628508862e-08
1.06117032092e-08
0.0008859304538
3.17767389288e-08
1.20516373344e-08
0.00088592944665
3.19703705042e-08
1.41287000872e-08
0.000885954335556
3.07196633737e-08
1.5859914611e-08
0.000885926639406
2.74228281865e-08
1.82947287771e-08
0.000885924909156
2.26747360617e-08
1.99807248956e-08
0.000885950476825
1.59945177047e-08
2.22587241005e-08
0.000885922484209
8.32320137589e-09
2.33453533402e-08
0.000885929832515
-5.29122753119e-10
2.47458150993e-08
0.000885931731996
2.46442316269e-08
0.000885929104704
6.22925854944e-09
1.35762774911e-08
0.000885839463051
1.23062602957e-08
1.40236337193e-08
0.000888856206337
1.81561184393e-08
1.48765329169e-08
0.000888980847526
2.34429776165e-08
1.62717710113e-08
0.000888997889325
2.7978661001e-08
1.82266465469e-08
0.000889025979449
3.12814616522e-08
2.11976062969e-08
0.000888998329919
3.33726539725e-08
2.41519895874e-08
0.000888997131297
3.37100834815e-08
2.83507607673e-08
0.00088902226097
3.24767278481e-08
3.19912978871e-08
0.000888994154004
2.91812926099e-08
3.68984438986e-08
0.000888992641389
2.41905210539e-08
4.05751977087e-08
0.00088901789844
1.73009359904e-08
4.51273098189e-08
0.000888990123831
9.09727218952e-09
4.76743068396e-08
0.000888997047005
-1.58227943641e-10
5.03590289804e-08
0.000888999347061
5.04509523965e-08
0.000888996266759
6.56010042601e-09
2.01206488674e-08
0.000885928869308
1.29836201784e-08
2.08554141514e-08
0.000888980679856
1.93650822639e-08
2.1900629937e-08
0.000889153339875
2.51384694177e-08
2.40662606601e-08
0.000889184307807
3.01306273716e-08
2.70376952788e-08
0.000889216502407
3.38517643287e-08
3.15698685834e-08
0.000889189622475
3.62884230039e-08
3.61551376142e-08
0.000889188436507
3.68773180535e-08
4.25776978373e-08
0.000889213343252
3.5765857655e-08
4.83252417504e-08
0.000889185089815
3.23579610425e-08
5.5914199955e-08
0.000889183184793
2.70867897522e-08
6.18438382438e-08
0.000889208377754
1.95407494582e-08
6.89616753968e-08
0.000889180099917
1.05663420914e-08
7.32026953952e-08
0.000889187114116
1.98322537716e-10
7.73780965219e-08
0.000889188951936
7.77215717275e-08
0.000889186177275
7.1619494416e-09
2.61822479865e-08
0.000885932513085
1.41563529563e-08
2.7274996303e-08
0.000888997885063
2.10822696063e-08
2.85573104816e-08
0.000889184421819
2.74052767641e-08
3.15222576575e-08
0.000889220085861
3.2958394085e-08
3.55420583773e-08
0.000889253669476
3.72239126396e-08
4.17371375986e-08
0.000889227158773
4.01482414871e-08
4.80769274134e-08
0.000889225750943
4.11595107453e-08
5.69380077062e-08
0.000889250716655
4.02182950374e-08
6.5108787513e-08
0.000889221947574
3.68784487327e-08
7.57355919303e-08
0.000889220266987
3.11114208675e-08
8.44939086078e-08
0.000889244671184
2.30103526491e-08
9.46185631372e-08
0.000889216931936
1.26662676762e-08
1.01252919008e-07
0.000889222919581
1.09819250595e-09
1.07170108885e-07
0.000889225638768
1.0819305813e-07
0.000889221806958
8.47575885002e-09
3.12671726797e-08
0.000885957968754
1.67567658285e-08
3.27139308103e-08
0.000889025567372
2.49178402771e-08
3.42657086634e-08
0.000889216341295
3.25096780186e-08
3.80227218988e-08
0.000889253296879
3.93590276728e-08
4.31414373636e-08
0.000889287207724
4.48709788074e-08
5.11047094529e-08
0.000889260231245
4.90115337955e-08
5.93703594176e-08
0.000889258629791
5.08691341989e-08
7.1055846096e-08
0.000889282575711
5.06305372823e-08
8.20282604747e-08
0.000889253630821
4.70069687943e-08
9.65520002256e-08
0.000889250396679
4.07299759067e-08
1.08739523013e-07
0.000889274848951
3.04553212543e-08
1.23134238802e-07
0.000889245131608
1.78632874458e-08
1.32767214217e-07
0.000889251637694
2.38336749882e-09
1.41418342516e-07
0.000889252484346
1.43228807216e-07
0.000889249847126
9.50984182527e-09
3.55124245757e-08
0.000885930558316
1.89586824526e-08
3.72514193526e-08
0.000888998199105
2.83506578333e-08
3.90696024886e-08
0.000889189674273
3.71928366211e-08
4.36923513147e-08
0.000889226976968
4.53612122364e-08
4.99339887229e-08
0.000889260666714
5.21990646053e-08
5.98720354054e-08
0.000889233720278
5.76163932434e-08
7.0237542061e-08
0.000889231374245
6.07122881265e-08
8.5228493571e-08
0.00088925555347
6.117788675e-08
9.96107416437e-08
0.000889225189468
5.81572932136e-08
1.19023304273e-07
0.000889222802469
5.09911610273e-08
1.35942902414e-07
0.000889244855813
3.97291512039e-08
1.56294474676e-07
0.000889217100938
2.3743094364e-08
1.70583866919e-07
0.000889220225085
4.98988015611e-09
1.83944399692e-07
0.000889224256259
1.87319796291e-07
0.000889217998726
1.17090656672e-08
3.80377165909e-08
0.000885928699652
2.32856520746e-08
4.00969028935e-08
0.000888996347212
3.47641653359e-08
4.22162452242e-08
0.000889188032616
4.58372052496e-08
4.75894628915e-08
0.000889224918345
5.63556232627e-08
5.49857976684e-08
0.000889258392496
6.56578909488e-08
6.67972246323e-08
0.000889230221283
7.36081261399e-08
7.95222966069e-08
0.000889227628003
7.87841148743e-08
9.80523807333e-08
0.000889249470464
8.12201170504e-08
1.16629449115e-07
0.000889219110608
7.83015013203e-08
1.41891307722e-07
0.000889212751091
7.08349454474e-08
1.65285304753e-07
0.000889235546324
5.54919098426e-08
1.93078571809e-07
0.000889202070412
3.51027256978e-08
2.14681726936e-07
0.000889207310692
8.1517993133e-09
2.32794892857e-07
0.000889205360045
2.40239428195e-07
0.000889202883308
1.30916906512e-08
3.94376402701e-08
0.000885954298518
2.62885321659e-08
4.16817255483e-08
0.000889021841274
3.95895037208e-08
4.39846108939e-08
0.000889213230346
5.25691359808e-08
5.01837514472e-08
0.000889250121809
6.52976692691e-08
5.85507077353e-08
0.000889282976434
7.69764710681e-08
7.25030151866e-08
0.000889254981697
8.75787641287e-08
8.74196580062e-08
0.000889250879587
9.57027156238e-08
1.10293006221e-07
0.000889273584965
1.00545893807e-07
1.33384164356e-07
0.000889239959924
1.00445684524e-07
1.66834933998e-07
0.000889236212458
9.29324758876e-08
1.9813270413e-07
0.000889252688122
7.70621491132e-08
2.40016582106e-07
0.00088922523788
5.07615210239e-08
2.70217366954e-07
0.000889220593509
1.42892628608e-08
3.06660666446e-07
0.000889228884708
3.1690283403e-07
0.000889215397409
1.60500852995e-08
3.84397703944e-08
0.000885925508352
3.21457183716e-08
4.08715371064e-08
0.000888992877268
4.83229664751e-08
4.33983899244e-08