/*--------------------------------*- C++ -*----------------------------------*\
| =========                 |                                                 |
| \\      /  F ield         | OpenFOAM: The Open Source CFD Toolbox           |
|  \\    /   O peration     | Version:  2406                                  |
|   \\  /    A nd           | Website:  www.openfoam.com                      |
|    \\/     M anipulation  |                                                 |
\*---------------------------------------------------------------------------*/
FoamFile
{
    version     2.0;
    format      ascii;
    arch        "LSB;label=32;scalar=64";
    class       surfaceScalarField;
    location    "0.01";
    object      phiHbyA;
}
// * * * * * * * * * * * * * * * * * * * * * * * * * * * * * * * * * * * * * //

dimensions      [0 3 -1 0 0 0 0];

oriented        oriented;

internalField   nonuniform List<scalar> 
85565
(
6.72889461545e-09
7.68578608482e-09
0.000882062898756
1.33836865653e-08
7.86565467222e-09
0.000885865967443
1.9626236161e-08
8.402581955e-09
0.000885955846561
2.53375177996e-08
9.1260768761e-09
0.000885959474802
3.01599139123e-08
1.02302958224e-08
0.000885985912217
3.36944471307e-08
1.1864883123e-08
0.000885958449549
3.58887303493e-08
1.3496960516e-08
0.000885958058313
3.62118606435e-08
1.58588771039e-08
0.000885983558991
3.48670035001e-08
1.78509412423e-08
0.000885956583575
3.12923808788e-08
2.06519629371e-08
0.000885955486047
2.60125039934e-08
2.26355835054e-08
0.000885981747673
1.86254221857e-08
2.52711844373e-08
0.000885954230161
1.00170468401e-08
2.66118878838e-08
0.00088596205126
1.48825147137e-10
2.82100698668e-08
0.000885964100587
2.82188223016e-08
0.000885961526288
7.0041031742e-09
1.51398285645e-08
0.000885865990263
1.38556153204e-08
1.56648293443e-08
0.000888882885347
2.04627265985e-08
1.66578762767e-08
0.000889007784405
2.64510659523e-08
1.81978179304e-08
0.000889025124655
3.15910323664e-08
2.04007572577e-08
0.000889053683806
3.53696230559e-08
2.37117997324e-08
0.000889026532994
3.77770505185e-08
2.70939524301e-08
0.000889026025446
3.82382051453e-08
3.18007008853e-08
0.000889051784621
3.69166174732e-08
3.60694140282e-08
0.000889024519174
3.33007523295e-08
4.15365136502e-08
0.000889023624832
2.77371591846e-08
4.60260099271e-08
0.000889049739821
2.00959430073e-08
5.0925418244e-08
0.000889022371586
1.08870257236e-08
5.4343879017e-08
0.000889029956258
6.19075413214e-10
5.68887130051e-08
0.000889032268221
5.76665831699e-08
0.000889029427218
7.42000389509e-09
2.24784834567e-08
0.000885955810383
1.47142325339e-08
2.33637114107e-08
0.000889007744049
2.1942863623e-08
2.45930860108e-08
0.000889180567211
2.85505516517e-08
2.70426898136e-08
0.000889211861149
3.42389932839e-08
3.03802444941e-08
0.000889244555739
3.86054301744e-08
3.55476282774e-08
0.000889218314076
4.14346095317e-08
4.07451347501e-08
0.000889217886146
4.23306468812e-08
4.81913112179e-08
0.000889243636883
4.11606732636e-08
5.47920423196e-08
0.00088921629865
3.75486690212e-08
6.37511392389e-08
0.000889215286121
3.16247569161e-08
7.06715356008e-08
0.000889241388059
2.32241829869e-08
7.92076521007e-08
0.000889213799982
1.29716229938e-08
8.42709735206e-08
0.00088922146079
1.17494119912e-09
8.93531842622e-08
0.000889223513933
8.99630695356e-08
0.000889220855981
8.03754903728e-09
2.91807547301e-08
0.000885959526227
1.59505824763e-08
3.04957721968e-08
0.000889025137246
2.38099987241e-08
3.20434539654e-08
0.000889211906494
3.10067369216e-08
3.53835524423e-08
0.00088924792449
3.73697611363e-08
3.99596466574e-08
0.000889282113022
4.22555419762e-08
4.69321844577e-08
0.000889256289602
4.56983311607e-08
5.42749069913e-08
0.000889255846071
4.68824768868e-08
6.42918111694e-08
0.000889281683593
4.59881032675e-08
7.40642184928e-08
0.000889254164678
4.21926842444e-08
8.59463003806e-08
0.000889253328259
3.57875802088e-08
9.70200954447e-08
0.000889279115643
2.66344613303e-08
1.07666503979e-07
0.000889251874195
1.49914118191e-08
1.1709356257e-07
0.000889259062502
2.15498941056e-09
1.21911360122e-07
0.000889261610057
1.25408001716e-07
0.000889258405851
9.5596795253e-09
3.49639629385e-08
0.000885985835795
1.89684308656e-08
3.67138770814e-08
0.000889053603864
2.82266472321e-08
3.85790275284e-08
0.000889244543478
3.70033528128e-08
4.29519129118e-08
0.000889282015047
4.48469525594e-08
4.87268756897e-08
0.000889316678694
5.14856656939e-08
5.80605224968e-08
0.000889290782428
5.634404081e-08
6.74365724051e-08
0.000889290372717
5.90781062348e-08
8.15330683008e-08
0.000889315805043
5.90242053722e-08
9.41060799204e-08
0.000889288384457
5.55930776333e-08
1.12301279924e-07
0.000889286796482
4.85484445729e-08
1.26367878287e-07
0.000889312892499
3.71354051228e-08
1.45219602595e-07
0.000889284480541
2.24995884288e-08
1.56167665594e-07
0.000889292306617
4.18831878916e-09
1.68618520339e-07
0.000889293470963
1.70421689186e-07
0.000889291224461
1.06430891644e-08
3.96338839811e-08
0.000885958538525
2.13016087603e-08
4.17402751637e-08
0.000889026555188
3.19665104078e-08
4.39552593374e-08
0.000889218400916
4.20136209354e-08
4.92811398599e-08
0.000889256286033
5.14487148887e-08
5.64524493077e-08
0.000889290986549
5.92334277635e-08
6.7918645077e-08
0.000889265196755
6.57454913097e-08
8.00819044253e-08
0.000889264558699
6.91451934628e-08
9.75676436764e-08
0.000889290238813
7.01562258121e-08
1.15197856171e-07
0.000889262284926
6.62660068939e-08
1.3754853588e-07
0.000889261383983
5.82859489514e-08
1.6006225929e-07
0.000889286386003
4.50856187747e-08
1.81075432674e-07
0.000889259461611
2.66248912079e-08
2.03398945098e-07
0.000889265431932
6.7491748644e-09
2.11269214888e-07
0.00088926882229
2.22857499791e-07
0.000889264334918
1.32294464579e-08
4.26167406929e-08
0.00088595794219
2.64351686111e-08
4.51359477968e-08
0.000889025892312
3.94868958878e-08
4.7673375188e-08
0.000889217873704
5.24556012444e-08
5.41134395934e-08
0.000889255655751
6.46109504709e-08
6.24715868303e-08
0.000889290386487
7.6207095089e-08
7.68873631582e-08
0.000889264122673
8.57597529357e-08
9.12893091242e-08
0.000889263614906
9.34881298881e-08
1.15083575466e-07
0.00088928818751
9.70735259618e-08
1.36201595887e-07
0.000889260728167
9.58999036218e-08
1.71005643431e-07
0.000889257497918
8.8033235656e-08
1.9741386398e-07
0.000889283833087
7.11963566257e-08
2.39053444348e-07
0.000889252729023
4.76829439485e-08
2.61541875517e-07
0.000889261395313
1.22538440543e-08
2.95201579492e-07
0.000889259179031
3.01232860948e-07
0.000889258468691
1.46818915643e-08
4.4124017814e-08
0.000885983689575
2.96002057236e-08
4.68848995419e-08
0.000889051802712
4.4766418223e-08
4.96649615621e-08
0.000889243787858
5.95566584304e-08
5.70361468101e-08
0.000889281642571
7.44770021044e-08
6.66873272455e-08
0.000889316190552
8.77961333099e-08
8.35122637405e-08
0.000889290153239
1.00952103938e-07
1.01109825805e-07
0.000889289092314
1.09654265249e-07
1.29539867512e-07
0.000889314460364
1.16772038899e-07
1.58372837028e-07
0.000889285518782
1.14236157632e-07
1.99923592264e-07
0.00088928465166
1.05692985252e-07
2.44143456523e-07
0.000889307388684
8.44809129342e-08
2.87336262066e-07
0.000889282042582
4.94245670539e-08
3.43209266654e-07
0.000889283589169
1.54007958689e-08
3.52379465866e-07
0.000889291127312
3.90334916707e-07
0.000889281817725
1.82343542104e-08
4.31937195773e-08
0.000885956437801
3.67674393149e-08
4.62316587657e-08
0.000889024320318
5.52678807801e-08
4.92042780703e-08
0.0008892163093
7.47539576348e-08
5.74114034029e-08
0.000889253828988
9.3910231608e-08
6.78415078594e-08
0.000889288475333
1.14807792411e-07
8.75581936995e-08
0.000889261427649
1.33658681679e-07
1.06965327044e-07
0.000889260887553
1.53795650881e-07
1.43993180292e-07
0.000889283519108
1.67659651002e-07
1.76096369727e-07
0.00088925635938
1.77688170905e-07
2.41410113357e-07
0.000889248572132
1.74448499557e-07
2.88270628403e-07
0.000889276250965
1.54860539061e-07
3.83589605192e-07
0.000889236025105
1.18917742929e-07
4.30506403223e-07
0.000889248208851
2.8466566721e-08
5.45767112017e-07
0.000889232094788
5.69465925671e-07
0.000889237395336
1.99056528934e-08
4.05796763131e-08
0.000885955657151
4.0431076803e-08
4.36276551277e-08
0.000889023612578
6.17000040878e-08
4.65075462916e-08
0.000889215528484
8.33441626861e-08
5.52933752126e-08
0.000889253175787
1.06924417964e-07
6.61000987826e-08
0.000889287472482
1.29829797916e-07
8.79527871673e-08
0.000889260982156
1.56350679177e-07
1.09252085507e-07
0.000889259233665
1.76992734334e-07
1.52199382609e-07
0.000889283963453
2.0269697743e-07
1.92420328367e-07
0.000889252839767
2.07877526415e-07
2.69465057796e-07
0.000889252044747
2.14196239843e-07
3.46519781149e-07
0.000889267684348
1.82776862359e-07
4.40207947922e-07
0.00088924783293
9.14629231161e-08
6.15958382917e-07
0.000889228429036
7.15341032871e-09
6.11665504607e-07
0.000889262665602
7.54864261407e-07
0.000889223224476
2.39848447005e-08
3.5038623075e-08
0.000885981599028
4.89335462602e-08
3.79666125675e-08
0.000889049473386
7.41248926711e-08
4.07398314421e-08
0.000889241464746
1.02534604687e-07
4.92417401769e-08
0.000889278581199
1.31648697297e-07
5.97372314448e-08
0.000889313206395
1.68512155249e-07
8.20909289893e-08
0.000889284845295
2.03766452312e-07
1.03380104307e-07
0.000889284587739
2.52871527312e-07
1.52933699875e-07
0.000889303160326
2.92021724088e-07
1.92840903831e-07
0.000889277330591
3.44118837877e-07
3.06635716403e-07
0.000889256825462
3.75032109455e-07
3.66930995927e-07
0.00088928895912
3.803375095e-07
6.13382900127e-07
0.000889215019938
5.15163500327e-07
5.4480818045e-07
0.000889248853431
3.23452235757e-07
1.18628725349e-06
0.000889139785476
1.60036365657e-06
0.000889182700176
2.55256400681e-08
2.79378026869e-08
0.000885954433802
5.22777576794e-08
3.04725498681e-08
0.000889022292856
8.04646789424e-08
3.25714520055e-08
0.00088921415933
1.10700400837e-07
4.0685145302e-08
0.00088925149303
1.45926887682e-07
4.93331090921e-08
0.000889285578302
1.83625916521e-07
7.22226379105e-08
0.000889258264678
2.33304557425e-07
8.98126495126e-08
0.000889255729457
2.77280125436e-07
1.4606492056e-07
0.000889278635683
3.48994134123e-07
1.82018296786e-07
0.000889243177426
3.68273797619e-07
3.26662352224e-07
0.000889239219459
4.54476142177e-07
4.03585870911e-07
0.000889235983218
4.13452598349e-07
5.94171357247e-07
0.000889232806862
4.44477835673e-08
1.24331739739e-06
0.000889153630466
-8.43189359675e-08
1.02565009365e-06
0.000889380456483
1.49120728922e-06
0.000889213441602
2.90598817668e-08
1.82063925324e-08
0.000885961937906
6.00289244162e-08
1.99543490027e-08
0.00088902964996
9.16359623228e-08
2.15400191524e-08
0.000889221653289
1.29751133026e-07
2.71959795059e-08
0.000889258343223
1.69989565663e-07
3.39934284235e-08
0.000889293066777
2.29149907802e-07
5.04898562621e-08
0.000889263069852
2.86210356557e-07
6.60059789325e-08
0.000889263609956
3.9236829866e-07
1.09391545625e-07
0.00088927529293
4.68530114615e-07
1.47173236328e-07
0.000889251936078
6.60197011503e-07
3.06365172368e-07
0.000889200391973
6.55210383748e-07
4.09625085168e-07
0.000889250645099
8.73676544164e-07
9.40267332992e-07
0.000889096685238
8.22773992851e-07
1.14078335736e-06
0.000889349278475
2.4723463239e-07
7.03118957961e-08
0.000889206124374
2.87624256725e-07
0.00088912360773
2.99011794704e-08
7.57081894544e-09
0.000885964320128
6.17871190821e-08
8.40452552876e-09
0.00088903210007
9.55062282412e-08
8.81411411695e-09
0.000889223994115
1.34192443052e-07
1.23280358312e-08
0.000889260914878
1.80371168666e-07
1.46055293441e-08
0.000889295100653
2.3726677502e-07
2.7141860607e-08
0.000889266293741
3.1558872574e-07
2.87978111784e-08
0.000889263784581
4.01615227729e-07
7.41122508556e-08
0.000889280552282
5.70415791237e-07
5.6402047314e-08
0.00088923754881
4.52147038416e-07
4.78682328863e-07
0.000889197368323
1.2664739192e-06
-1.20444223919e-07
0.000889217385962
1.2407776831e-06
7.25883942627e-07
0.000889339486921
7.72297546766e-08
6.15985691288e-08
0.00088918152345
2.77778212756e-11
8.15196386058e-12
8.5108065662e-08
3.57956491541e-11
6.20884194777e-08
3.13729118108e-08
0.000885961465143
6.52467092375e-08
0.000889029149879
1.00275349852e-07
0.000889221139192
1.43796263413e-07
0.000889257679462
1.9164899396e-07
0.000889292368047
2.67500083678e-07
0.000889261623813
3.44622112429e-07
0.000889262180122
5.14422343e-07
0.000889268199461
6.39063796205e-07
0.000889242533834
1.43880840699e-06
0.000889192590486
1.30022635844e-06
0.000889275071218
1.6789578144e-07
0.000889255903842
1.41633892223e-11
9.29084131179e-08
1.74205159286e-12
1.0597616494e-09
1.32689537427e-09
6.76485034433e-09
7.43547934779e-09
0.000882048204789
1.336876539e-08
7.69062412719e-09
0.00088585120287
1.95020580121e-08
8.24036548308e-09
0.000885940971346
2.50139486972e-08
9.03811087342e-09
0.000885944490516
2.96659057154e-08
1.00540553158e-08
0.000885970695689
3.30021530623e-08
1.16756975345e-08
0.000885943043888
3.5105316122e-08
1.31441958397e-08
0.000885942305326
3.5335368488e-08
1.54148800128e-08
0.000885967559377
3.40177766665e-08
1.72650781056e-08
0.000885940150652
3.05169187106e-08
1.98483340365e-08
0.0008859388166
2.53437252038e-08
2.18470494202e-08
0.000885964619854
1.82154384224e-08
2.40818400742e-08
0.000885936978126
9.71450109032e-09
2.57049241717e-08
0.000885944422771
2.39007604729e-10
2.67457204884e-08
0.000885946543486
2.72117921449e-08
0.000885943800764
7.12211342152e-09
1.44774147147e-08
0.000885851269714
1.38281584271e-08
1.5161495404e-08
0.000888868156182
2.01352605812e-08
1.62102534623e-08
0.00088899295195
2.57706163112e-08
1.78402904687e-08
0.000889010167741
3.06112800365e-08
1.98470848316e-08
0.000889038477581
3.40651905952e-08
2.31035052939e-08
0.000889011112213
3.62772892109e-08
2.6143821249e-08
0.000889010217292
3.65313537244e-08
3.06276707015e-08
0.000889035718383
3.51792968069e-08
3.4568475273e-08
0.000889007952304
3.15924857551e-08
3.95083715729e-08
0.000889006849456
2.61941184509e-08
4.39491252186e-08
0.000889032407217
1.89318558535e-08
4.78911774833e-08
0.000889005001773
1.00598769217e-08
5.18118570657e-08
0.000889012080127
4.77787127934e-10
5.30937222358e-08
0.00088901460214
5.48287693361e-08
0.000889011439886
7.61174604295e-09
2.14153471913e-08
0.000885940858196
1.48077276181e-08
2.24937930092e-08
0.000888992827203
2.17693295211e-08
2.36976901502e-08
0.000889165645903
2.81209534666e-08
2.62303583775e-08
0.000889196785974
3.35909931169e-08
2.92545351957e-08
0.000889229216014
3.77789511793e-08
3.43977597582e-08
0.000889202639723
4.05118818923e-08
3.90540125033e-08
0.000889201798287
4.13394350983e-08
4.63409011277e-08
0.000889227100144
4.02090507835e-08
5.23443057171e-08
0.000889199248867
3.66405317168e-08
6.08680135068e-08
0.00088919775358
3.08429965414e-08
6.7462895331e-08
0.000889223327659
2.25740130376e-08
7.51207441355e-08
0.000889195368026
1.24217614285e-08
8.05175903785e-08
0.000889202633918
8.55259371359e-10
8.42792574686e-08
0.000889204593681
8.57864249855e-08
0.00088920183692
8.0966170556e-09
2.76058390939e-08
0.000885944611446
1.57378625386e-08
2.91857443666e-08
0.000889010181495
2.30977957284e-08
3.06894967332e-08
0.000889196897175
2.97238857147e-08
3.40533164251e-08
0.000889232761279
3.56092193872e-08
3.81659733424e-08
0.000889266624031
3.99371481848e-08
4.49600571853e-08
0.000889240485486
4.30314404042e-08
5.15585431193e-08
0.000889239494732
4.37625721935e-08
6.10179363105e-08
0.000889264970412
4.27542542708e-08
7.00427211008e-08
0.000889236686811
3.88591098953e-08
8.05619185684e-08
0.000889235606075
3.2696513068e-08
9.15031896543e-08
0.000889260448709
2.41603992815e-08
9.95521719052e-08
0.000889233310457
1.31373382764e-08
1.10282510925e-07
0.000889239515348
1.69883936831e-09
1.11491167106e-07
0.000889242658528
1.17677411359e-07
0.000889238669385
9.80813900809e-09
3.28983305661e-08
0.000885970424121
1.91292485584e-08
3.50060399844e-08
0.000889038191089
2.80687975093e-08
3.67803464046e-08
0.000889229124442
3.65461787247e-08
4.12224609986e-08
0.000889266321444
4.41303939577e-08
4.63072831529e-08
0.000889300584871
5.05877831497e-08
5.55949258118e-08
0.000889274071287
5.53673691094e-08
6.37936162985e-08
0.000889273011654
5.80502125141e-08
7.76341204555e-08
0.000889297553096
5.81307615151e-08
8.87595707204e-08
0.000889269287484
5.47288259146e-08
1.06122967894e-07
0.00088926664821
4.79196888123e-08
1.19163321047e-07
0.000889291829516
3.64840376521e-08
1.36113661723e-07
0.00088926249566
2.17363483644e-08
1.47704233574e-07
0.000889269610619
3.53700433444e-09
1.56659942669e-07
0.000889270419535
1.60905693273e-07
0.000889268042595
1.04116830144e-08
3.71323560049e-08
0.000885943189883
2.05267418481e-08
3.96639168299e-08
0.000889011069343
3.04454100529e-08
4.17555538348e-08
0.000889202763336
3.95346829435e-08
4.70890395688e-08
0.000889240381568
4.81520327598e-08
5.33563181266e-08
0.000889274520788
5.47596388733e-08
6.45208592066e-08
0.00088924820242
6.05315484708e-08
7.51865522066e-08
0.000889246546749
6.26577781951e-08
9.15920837414e-08
0.000889271656965
6.32619469988e-08
1.07566587316e-07
0.000889242119213
5.86652132229e-08
1.26814207507e-07
0.000889241004177
5.10130068733e-08
1.48955884042e-07
0.000889263768144
3.9012804097e-08
1.63270789896e-07
0.000889237624199
2.17958595445e-08
1.89152838757e-07
0.000889240916792
5.85505038497e-09
1.86367628314e-07
0.000889246544682
2.06095943941e-07
0.000889239511112
1.33985719029e-08
3.96093948479e-08
0.000885941840621
2.64318562763e-08
4.26847388703e-08
0.000889009686786
3.90597189831e-08
4.50523317526e-08
0.000889201582929
5.16740286212e-08
5.15798615048e-08
0.000889238846118
6.34457294814e-08
5.86581357434e-08
0.000889272905604
7.48268867103e-08
7.29879456949e-08
0.00088924545934
8.4225483491e-08
8.50470587132e-08
0.000889243832543
9.18841281659e-08
1.08283831208e-07
0.000889266570108
9.57435200317e-08
1.26113307892e-07
0.000889237577163
9.45561685282e-08
1.5883401352e-07
0.000889231943201
8.74337535643e-08
1.82368532595e-07
0.000889256498125
7.00863710626e-08
2.1909946571e-07
0.000889222946569
4.61647625922e-08
2.43340088069e-07
0.000889230187671
1.09883171981e-08
2.65266190126e-07
0.000889226852779
2.80307166774e-07
0.000889225833257
1.39555750867e-08
4.091175518e-08
0.000885967669918
2.78721038577e-08
4.42740936071e-08
0.00088903551013
4.18933841456e-08
4.68103453278e-08
0.000889227194285
5.50652017932e-08
5.42459218468e-08
0.00088926458474
6.85666792782e-08
6.23428352577e-08
0.000889298159695
7.9419509714e-08
7.88383197245e-08
0.000889271218592
9.098570923e-08
9.36057919151e-08
0.000889268261126
9.62541195495e-08
1.20257476715e-07
0.000889292701874
1.02083568034e-07
1.45401818955e-07
0.000889260440911
9.65515527162e-08
1.80385168805e-07
0.000889259583192
8.80863735906e-08
2.23048788965e-07
0.000889276927142
6.85073511863e-08
2.50113496458e-07
0.000889254433172
3.62022173443e-08
3.13941835329e-07
0.000889248736169
1.45751284163e-08
2.91385385021e-07
0.000889263975145
3.54561783592e-07
0.000889246734069
1.81747364147e-08
3.95269426935e-08
0.000885939478319
3.63275688765e-08
4.33058457155e-08
0.000889007094137
5.4139878872e-08
4.59962093294e-08
0.000889198886614
7.31272655662e-08
5.43134761102e-08
0.000889235497724
9.14906070909e-08
6.26950177897e-08
0.00088926908532
1.11987934185e-07
8.2233728173e-08
0.000889239902808
1.30133418295e-07
9.75008949777e-08
0.000889237547279
1.49893813889e-07
1.33127089551e-07
0.000889256538703
1.63774825418e-07
1.58401804087e-07
0.000889226771085
1.73512833409e-07
2.17670335724e-07
0.000889213545456
1.72387575615e-07
2.57061744941e-07
0.00088923806941
1.48656682456e-07
3.40889261438e-07
0.000889191252294
1.11517914349e-07
3.91012287852e-07
0.000889201033374
2.77868895967e-08
4.57746997121e-07
0.00088918098148
5.15739202595e-07
0.000889184016061
1.85162175315e-08
3.70868623491e-08
0.000885938797153
3.74129408624e-08
4.08863161085e-08
0.000889006316576
5.69702949047e-08
4.33659695628e-08
0.000889197751211
7.59747214257e-08
5.23846236225e-08
0.000889234635296
9.71413999207e-08
6.08643929518e-08
0.000889267363406
1.15117264661e-07
8.26911731479e-08
0.000889239378273
1.38328176536e-07
9.91522382867e-08
0.000889234300589
1.50244520818e-07
1.39936013989e-07
0.000889257546231
1.72164455017e-07
1.72351650456e-07
0.000889219744318
1.66383700654e-07
2.37108436734e-07
0.000889219858304
1.6797854821e-07
3.105512762e-07
0.000889222781783
1.29885982081e-07
3.74982662781e-07
0.000889212084017
4.943042661e-08
5.43405940801e-07
0.000889175492013
2.27678655488e-08
4.49346984785e-07
0.00088923731239
6.53775447475e-07
0.000889172995614
2.34791598218e-08
3.12778649129e-08
0.000885963763273
4.76734882223e-08
3.50330988716e-08
0.000889031160535
7.16508276661e-08
3.74491248509e-08
0.000889222816279
9.92079637045e-08
4.60743814336e-08
0.000889258497513
1.26469985927e-07
5.39402944616e-08
0.000889291601773
1.62193023346e-07
7.59877770669e-08
0.000889259683335
1.94659392225e-07
9.13961736894e-08
0.000889256766652
2.41587169287e-07
1.37744126618e-07
0.00088926860242
2.77914157003e-07
1.66212763301e-07
0.000889239079999
3.29846569369e-07
2.59931436257e-07
0.000889207204889
3.64727540322e-07
3.08621554156e-07
0.00088923592225
3.71915124298e-07
4.90223088484e-07
0.000889146042918
5.28118219435e-07
4.33713062325e-07
0.000889173130027
2.61255587326e-07
8.96874190561e-07
0.000889027070709
1.38356678205e-06
0.000889067240659
2.34695298255e-08
2.47737474768e-08
0.000885936716511
4.79489795431e-08
2.81062816058e-08
0.0008890039685
7.37705334069e-08
2.97464543343e-08
0.000889195178774
1.00160131269e-07
3.8349802364e-08
0.000889231338222
1.31616143056e-07
4.42323280614e-08
0.000889263172105
1.60671289211e-07
6.79755448016e-08
0.000889233455832
2.04390168279e-07
7.86479644997e-08
0.000889225745995
2.29515160993e-07
1.33654713191e-07
0.000889246312833
2.95423093194e-07
1.52635429815e-07
0.000889199402823
2.92954611367e-07
2.67182259225e-07
0.00088919981386
3.5842225781e-07
3.41175985589e-07
0.000889170044188
3.07748868194e-07
4.79751114445e-07
0.000889210747781
-1.44996375933e-07
1.10126708473e-06
0.000888996062173
-2.49409891414e-07
8.39042269246e-07
0.000889442165787
1.19692125292e-06
0.000889117255006
2.78625759254e-08
1.51666185704e-08
0.000885943453698
5.7528184844e-08
1.76270296392e-08
0.000889010476468
8.71325534786e-08
1.89867318024e-08
0.000889201999133
1.23694339217e-07
2.47708922291e-08
0.000889236713706
1.60178459875e-07
2.93326712269e-08
0.000889269470912
2.16113762207e-07
4.57535143796e-08
0.000889234261404
2.65441348259e-07
5.58996886615e-08
0.000889231384276
3.60133256644e-07
9.69450125536e-08
0.00088923220046
4.21543720818e-07
1.19550153927e-07
0.000889206074715
5.75155600382e-07
2.24265258264e-07
0.000889134477716
6.26838355011e-07
2.92942000391e-07
0.000889196425432
7.40422569281e-07
6.60171602469e-07
0.000888900880704
6.57761841772e-07
1.13205720064e-06
0.000889323586751
1.9053000743e-07
5.48338819323e-08
0.000888545210477
1.479892853e-07
0.000888444022154
2.74737757361e-08
5.37898419621e-09
0.000885945969757
5.67667736578e-08
6.82022214805e-09
0.000889012998105
8.7610343598e-08
7.0731634347e-09
0.000889204153271
1.21795098479e-07
1.11364056215e-08
0.000889239402789
1.62735925549e-07
1.16807589049e-08
0.000889270895215
2.07397137661e-07
2.64703812276e-08
0.000889238315034
2.74630940899e-07
2.3579912509e-08
0.0008892295926
3.20633287279e-07
7.8664020508e-08
0.000889242299379
4.54924491573e-07
4.70155387928e-08
0.000889187833644
3.5708731465e-07
3.0002111245e-07
0.000889171537608
1.0827619242e-06
-2.3437370268e-07
0.000889074331376
1.08952324722e-06
4.92255177178e-07
0.000889384280773
7.37306209382e-08
1.50372235473e-07
0.000888332581278
2.92397342753e-09
7.36255765153e-09
0.00044460415541
1.08658167708e-08
0.000444553903429
2.93990614787e-08
0.000885942826949
6.13582894824e-08
0.000889009702502
9.36698641966e-08
0.000889201099931
1.34783963489e-07
0.000889235448341
1.77324029007e-07
0.000889267840953
2.48493069967e-07
0.000889231066391
3.15593876736e-07
0.000889227361685
4.74285345363e-07
0.000889220016809
5.83715098839e-07
0.000889192279356
1.08762262964e-06
0.000889071358708
1.02075877324e-06
0.000889210682028
2.14208509602e-07
0.000888562941774
7.36946299711e-09
0.000444603678524
-2.8837682532e-09
4.99040520317e-08
3.34390013177e-08
5.9679217786e-09
6.86466865611e-09
0.000882035815646
1.1876483492e-08
7.02858336274e-09
0.000885838721013
1.74046098328e-08
7.50501938185e-09
0.000885928379855
2.24671077049e-08
8.16929579284e-09
0.000885931728064
2.67032031561e-08
9.15257978047e-09
0.000885957736054
2.98130733437e-08
1.06137818846e-08
0.000885929803459
3.16869776605e-08
1.20512394559e-08
0.000885928801819
3.19201043895e-08
1.41322364988e-08
0.000885953690962
3.06314820128e-08
1.58591048113e-08
0.000885926001466
2.73855301859e-08
1.83000420159e-08
0.000885924271435
2.26072758651e-08
1.99794983338e-08
0.000885949845746
1.59848601156e-08
2.22659653379e-08
0.000885921852736
8.2921078265e-09
2.33441149528e-08
0.000885929206661
-4.99379050708e-10
2.47546746707e-08
0.000885931104199
2.4643504803e-08
0.000885928481012
6.22141662329e-09
1.35340291424e-08
0.000885838810546
1.22859566088e-08
1.39856369961e-08
0.000888855555339
1.81117828416e-08
1.48546972149e-08
0.000888980199575
2.34028611195e-08
1.62483047842e-08
0.00088899724188
2.79074556816e-08
1.82044926653e-08
0.000889025335928
3.12295032339e-08
2.1163176725e-08
0.000888997687837
3.3287336488e-08
2.41223997537e-08
0.000888996495144
3.36557761733e-08
2.83007893998e-08
0.000889021627557
3.23951654236e-08
3.19522455379e-08
0.000888993527386
2.91376914265e-08
3.68310849764e-08
0.000888992018833
2.4131897785e-08
4.05268138948e-08
0.000889017281714
1.72828797779e-08
4.5044983471e-08
0.000888989511645
9.0764286383e-09
4.76193512382e-08
0.000888996437987
-1.3821628821e-10
5.02691530869e-08
0.000888998740951
5.03949717246e-08
0.000888995660615
6.55634448517e-09
2.00939317412e-08
0.00088592821228
1.29793867115e-08
2.0829529187e-08
0.00088898002583
1.93194778902e-08
2.18746305451e-08
0.000889152692072
2.51000367811e-08
2.40449285356e-08
0.000889183659468
3.00478835824e-08
2.70039607055e-08
0.0008892158581
3.38051188746e-08
3.15460022212e-08
0.000889188975372
3.61836380444e-08
3.61063472278e-08
0.000889187795891
3.68343948255e-08
4.25496644862e-08
0.000889212697931
3.56569028471e-08
4.82536872002e-08
0.000889184453186
3.23336621645e-08
5.58800417198e-08
0.000889182540822
2.69949449219e-08
6.1744043883e-08
0.000889207744118
1.95501063131e-08
6.89194621153e-08
0.00088917945609
1.05109448687e-08
7.3077436102e-08
0.000889186481889
2.51875645473e-10
7.73291971605e-08
0.000889188307892
7.75863517368e-08
0.000889185545804
7.15887817904e-09
2.60975077742e-08
0.000885931867092
1.41517866188e-08
2.71888722857e-08
0.000888997242327
2.10413746414e-08
2.84717274511e-08
0.000889183786592
2.73545445993e-08
3.14106389289e-08
0.000889219453905
3.28857060669e-08
3.54336795728e-08
0.000889253044404
3.71524868434e-08
4.15724533435e-08
0.000889226539146
4.00644435222e-08
4.79320869225e-08
0.000889225141268
4.10732233916e-08
5.6700276891e-08
0.000889250118063
4.01469558551e-08
6.49189795408e-08
0.000889221358996
3.67886566388e-08
7.54132481218e-08
0.000889219697864
3.10773064103e-08
8.42587002386e-08
0.000889244106439
2.29367432972e-08
9.42210577363e-08
0.000889216395052
1.26872707806e-08
1.00983924478e-07
0.000889222375329
1.06540138112e-09
1.06733104396e-07
0.000889225122907
1.07915391482e-07
0.000889221270974
8.47080795976e-09
3.12271620944e-08
0.000885957312445
1.67519257491e-08
3.26760446628e-08
0.000889024913681
2.48506808767e-08
3.42242941461e-08
0.00088921569533
3.24621737701e-08
3.79958174852e-08
0.000889252647413
3.92300488293e-08
4.30849068877e-08
0.000889286565777
4.48194096271e-08
5.10836257522e-08
0.000889259579284
4.88348773667e-08
5.92832355353e-08
0.000889257991429
5.08307756852e-08
7.10393073865e-08
0.000889281918926
5.04266858297e-08
8.18906392923e-08
0.00088925299485
4.70043298349e-08
9.65334102008e-08
0.000889249730065
4.05335770936e-08
1.08533185253e-07
0.000889274211572
3.05102317495e-08
1.23097666548e-07
0.000889244449987
1.77162816187e-08
1.32491386e-07
0.000889250994603
2.50991711259e-09
1.41352705542e-07
0.000889251791078
1.42916110841e-07
0.00088924920017
9.50678930653e-09
3.53942548414e-08
0.000885929921823
1.8949934202e-08
3.71295766387e-08
0.000888997565948
2.82979282578e-08
3.89495711119e-08
0.000889189050719
3.71157004963e-08
4.35236480655e-08
0.000889226359716
4.52676831197e-08
4.97788551051e-08
0.000889260062568
5.20814566907e-08
5.96099330259e-08
0.000889233128579
5.75103293178e-08
7.00281041314e-08
0.000889230801236
6.05528488346e-08
8.48364784289e-08
0.000889255008151
6.10930759074e-08
9.93358206051e-08
0.000889224661141
5.79669138589e-08
1.18482621174e-07
0.000889222329449
5.09645276413e-08
1.35603834151e-07
0.00088924438197
3.95448051345e-08
1.55637127214e-07
0.000889216718102
2.38062757237e-08
1.70202815977e-07
0.000889219803577
4.86937483836e-09
1.83256676907e-07
0.000889223942436
1.86947060551e-07
0.000889217603586
1.17016430629e-08
3.79916826938e-08
0.000885928047072
2.32775549605e-08
4.00544105289e-08
0.000888995696318
3.4662412538e-08
4.21676480706e-08
0.000889187391308
4.5773605966e-08
4.75684174887e-08
0.000889224268298
5.61551201428e-08
5.4912254716e-08
0.000889257758271
6.55929474346e-08
6.67926303673e-08
0.000889229563112
7.33194996547e-08
7.93941914293e-08
0.000889227001144
7.87417561046e-08
9.80587512958e-08
0.000889248794498
8.08695442212e-08
1.16401885297e-07
0.000889218488674
7.8312744111e-08
1.41871721755e-07
0.000889212037506
7.04900026938e-08
1.64907076058e-07
0.000889234919861
5.55839072166e-08
1.92929913387e-07
0.000889201294783
3.48591788869e-08
2.14122826838e-07
0.000889206663281
8.34632657021e-09
2.32431245795e-07
0.000889204526596
2.39496201649e-07
0.00088920220711
1.30875522662e-08
3.9303887302e-08
0.000885953673708
2.62738925883e-08
4.15423558919e-08
0.00088902121978
3.95152161388e-08
4.3849681817e-08
0.000889212621672
5.24530269594e-08
4.99766870469e-08
0.000889249523324
6.51661082155e-08
5.83733391456e-08
0.000889282401041
7.67880090756e-08
7.21617139172e-08
0.000889254429127
8.74246085215e-08
8.71764221911e-08
0.000889250359761
9.54264142968e-08
1.09765100018e-07
0.000889273123853
1.004032976e-07