/*--------------------------------*- C++ -*----------------------------------*\
| =========                 |                                                 |
| \\      /  F ield         | OpenFOAM: The Open Source CFD Toolbox           |
|  \\    /   O peration     | Version:  2406                                  |
|   \\  /    A nd           | Website:  www.openfoam.com                      |
|    \\/     M anipulation  |                                                 |
\*---------------------------------------------------------------------------*/
FoamFile
{
    version     2.0;
    format      ascii;
    arch        "LSB;label=32;scalar=64";
    class       volVectorField;
    location    "0.01";
    object      U;
}
// * * * * * * * * * * * * * * * * * * * * * * * * * * * * * * * * * * * * * //

dimensions      [0 1 -1 0 0 0 0];

internalField   nonuniform List<vector> 
29768
(
(2.27395449235e-06 1.75284101892e-06 0.793883835593)
(5.08312093288e-06 1.82210411047e-06 0.797282738277)
(9.55079414761e-06 2.0313672566e-06 0.797387562298)
(1.19089269143e-05 2.08319218975e-06 0.797390790394)
(1.57958358787e-05 2.42437057169e-06 0.797390733436)
(1.71823525496e-05 2.54552722604e-06 0.797389900329)
(1.96605917479e-05 3.11606996751e-06 0.797389669327)
(1.95819097118e-05 3.18324384958e-06 0.797388666748)
(2.00132836602e-05 4.02739818383e-06 0.797388471541)
(1.81107634891e-05 3.87690267789e-06 0.797387445145)
(1.61033765555e-05 5.00157604021e-06 0.797387336396)
(1.23359296029e-05 4.46450429541e-06 0.797386419597)
(8.02438502457e-06 5.76776326773e-06 0.79738643739)
(2.9208017973e-06 4.80667107974e-06 0.797385763371)
(-2.76736237739e-06 6.05066057284e-06 0.797385935091)
(2.22573117627e-06 6.65089868262e-06 0.797282752944)
(5.42655364122e-06 6.77216721542e-06 0.799973525524)
(9.71784101073e-06 7.14294002047e-06 0.80010976407)
(1.26522747201e-05 7.88011674647e-06 0.800125333045)
(1.62655105368e-05 8.74371967677e-06 0.800127108737)
(1.82720777152e-05 1.04091680532e-05 0.800126681907)
(2.03960486923e-05 1.1619135657e-05 0.800126365383)
(2.09041086875e-05 1.41335131888e-05 0.800125555162)
(2.08988825411e-05 1.54619975552e-05 0.800125213289)
(1.94583288817e-05 1.86759378797e-05 0.800124395099)
(1.69438449916e-05 1.97114272006e-05 0.800124115274)
(1.33740354063e-05 2.3133980651e-05 0.80012340475)
(8.58829677237e-06 2.32872876904e-05 0.800123237095)
(3.30407136734e-06 2.60012231319e-05 0.80012274914)
(-2.63778684647e-06 2.47586301132e-05 0.800122747908)
(2.32354178626e-06 9.90342867038e-06 0.797387563354)
(5.77548408157e-06 1.03494973414e-05 0.80010975557)
(1.0295871542e-05 1.10522669183e-05 0.800288764727)
(1.36856461903e-05 1.19939454076e-05 0.800316851639)
(1.7527558788e-05 1.35370853189e-05 0.800322341687)
(1.99063041793e-05 1.54878663195e-05 0.800322809986)
(2.23018845174e-05 1.797491008e-05 0.800322580963)
(2.29995631903e-05 2.05978650935e-05 0.800321864229)
(2.32811858762e-05 2.39392681775e-05 0.800321473443)
(2.17196698408e-05 2.66895061899e-05 0.80032069965)
(1.93307093511e-05 3.05682968194e-05 0.800320398242)
(1.52417728872e-05 3.24834647322e-05 0.800319685125)
(1.01433581089e-05 3.6082114605e-05 0.800319536913)
(4.03100647895e-06 3.61246638948e-05 0.800318992949)
(-2.75809863494e-06 3.82391370776e-05 0.800319042454)
(2.42956720291e-06 1.46759168021e-05 0.79739085432)
(6.34270401528e-06 1.51935558673e-05 0.800125369446)
(1.10751120958e-05 1.58277005657e-05 0.80031688986)
(1.49435231393e-05 1.75645574547e-05 0.800349214698)
(1.8950777884e-05 1.96681153838e-05 0.800356073646)
(2.19026047227e-05 2.33725513389e-05 0.800356915821)
(2.42904198955e-05 2.65639267025e-05 0.800356733446)
(2.5667861459e-05 3.20890358984e-05 0.800356066515)
(2.55813372036e-05 3.59589168285e-05 0.800355626562)
(2.46901305926e-05 4.30169754289e-05 0.800354910065)
(2.14277821854e-05 4.66915929594e-05 0.800354502445)
(1.76850070178e-05 5.41286006286e-05 0.800353873413)
(1.14201452434e-05 5.60506578927e-05 0.800353547992)
(4.95096759825e-06 6.15821189541e-05 0.800353102906)
(-2.60633065383e-06 6.01189192256e-05 0.800352973971)
(2.98599476753e-06 1.72328240691e-05 0.797390770063)
(7.44820054567e-06 1.81489399845e-05 0.800127133429)
(1.3272094495e-05 1.92053102884e-05 0.800322381464)
(1.75816025837e-05 2.11228678566e-05 0.800356058885)
(2.28817842568e-05 2.40225368875e-05 0.800363377878)
(2.61603370646e-05 2.79475188005e-05 0.800364282302)
(3.01446256067e-05 3.27858242232e-05 0.800364188606)
(3.14733204527e-05 3.82150850804e-05 0.800363395698)
(3.31382530184e-05 4.50379868632e-05 0.800363098478)
(3.14144753078e-05 5.09692238903e-05 0.800362099561)
(2.93881699248e-05 5.94155921179e-05 0.800361961323)
(2.37118166303e-05 6.36029396718e-05 0.800360830081)
(1.69017310592e-05 7.20181987599e-05 0.800360916313)
(7.70868561089e-06 7.17118995576e-05 0.800359791166)
(-3.14104801276e-06 7.70376364669e-05 0.800360146515)
(3.13262547497e-06 2.10000643368e-05 0.797390060917)
(8.48389531334e-06 2.19924542288e-05 0.800126799518)
(1.47779060613e-05 2.29737748097e-05 0.800322937456)
(2.01565785162e-05 2.58428763729e-05 0.800356989165)
(2.57723597392e-05 2.925505837e-05 0.800364419783)
(3.04774347891e-05 3.55482905874e-05 0.800365393967)
(3.42788001999e-05 4.09562170141e-05 0.800365265112)
(3.76024412482e-05 5.09576985428e-05 0.800364561141)
(3.79858289737e-05 5.78731202106e-05 0.800364112435)
(3.87117151305e-05 7.18699098256e-05 0.800363316324)
(3.37195861068e-05 7.87775328382e-05 0.800362777222)
(2.9981582731e-05 9.52559249424e-05 0.80036203938)
(1.928363835e-05 9.87711609014e-05 0.80036134093)
(9.77748854317e-06 0.000112749596939 0.80036070406)
(-2.4127568005e-06 0.000109354218763 0.800360260037)
(4.15706692816e-06 2.23401653616e-05 0.797389785426)
(1.02841785246e-05 2.3645345168e-05 0.800126464357)
(1.8598789121e-05 2.50842362149e-05 0.800322713987)
(2.45710785162e-05 2.80443731384e-05 0.80035678109)
(3.2801466826e-05 3.24725584414e-05 0.800364302347)
(3.78655518852e-05 3.87275622314e-05 0.800365153299)
(4.54936402669e-05 4.66204608676e-05 0.80036521327)
(4.83111351872e-05 5.57434511511e-05 0.800364151042)
(5.3961613648e-05 6.8120392989e-05 0.800364145537)
(5.2230552413e-05 7.85540692425e-05 0.800362482235)
(5.26939459674e-05 9.63024586814e-05 0.800362873015)
(4.3631140336e-05 0.000102743592932 0.80036040314)
(3.42732074049e-05 0.000123735565084 0.800361265941)
(1.79434784854e-05 0.000118208830801 0.800358130804)
(-4.54900464935e-06 0.000134404916651 0.800359444167)
(4.26228154043e-06 2.42616863864e-05 0.797388982696)
(1.17632727726e-05 2.57047919097e-05 0.800125806178)
(2.05621672145e-05 2.70376556457e-05 0.800322152799)
(2.83645131915e-05 3.11284908658e-05 0.800356274101)
(3.67447450533e-05 3.58341604389e-05 0.800363777206)
(4.46880412531e-05 4.5364211147e-05 0.800364726623)
(5.12946756174e-05 5.32053709618e-05 0.80036465142)
(5.90880938352e-05 7.01384898067e-05 0.800363868382)
(6.07798236767e-05 8.08243130352e-05 0.800363358392)
(6.68911994214e-05 0.000108531699349 0.80036245782)
(5.79588404545e-05 0.000119580744863 0.800361362307)
(5.75452000594e-05 0.000158832787625 0.800360683257)
(3.47318012189e-05 0.000162275330938 0.800358134148)
(1.9115337341e-05 0.000204867831588 0.800357544623)
(-2.30559022527e-06 0.000195141074323 0.800355615101)
(5.78153632504e-06 2.39887571042e-05 0.797388728778)
(1.41237763011e-05 2.5557892387e-05 0.800125444781)
(2.60535774648e-05 2.72619898817e-05 0.800321774228)
(3.43745046916e-05 3.12416885011e-05 0.80035581225)
(4.73975180703e-05 3.70847768489e-05 0.800363468273)
(5.53227247812e-05 4.59734616807e-05 0.800364149444)
(7.02810098181e-05 5.73689844515e-05 0.80036453152)
(7.5928416421e-05 7.15435050548e-05 0.800362873243)
(9.23601520591e-05 9.24014013655e-05 0.80036356551)
(9.10730939153e-05 0.000110123261463 0.800360088852)
(0.000103407727486 0.000147523147881 0.800361886857)
(8.75210328553e-05 0.000155355736166 0.800355299121)
(8.20326429906e-05 0.000213380314559 0.80035813018)
(4.84676617764e-05 0.000180591185572 0.8003482802)
(-1.72350843701e-05 0.000232144736439 0.80035377812)
(5.75234220031e-06 2.32434370762e-05 0.797387987033)
(1.59772093959e-05 2.49890761876e-05 0.800124844368)
(2.81815285801e-05 2.65314570863e-05 0.800321238374)
(3.92623950278e-05 3.15391648744e-05 0.80035534229)
(5.18614488748e-05 3.7091619789e-05 0.800362933135)
(6.50664372623e-05 4.9797474713e-05 0.800363824254)
(7.68774798556e-05 5.9594641502e-05 0.800363847967)
(9.41116848513e-05 8.59865076753e-05 0.800362887614)
(9.93631735157e-05 0.000100157997018 0.800362025456)
(0.000122314885221 0.000154065127771 0.800360742983)
(0.000104853120658 0.000167702404921 0.800357010137)
(0.000129338640276 0.000264613184912 0.800356683882)
(7.05876107806e-05 0.000257863597852 0.800340488976)
(2.9084773738e-05 0.000416770938688 0.800341416171)
(-2.14074758408e-05 0.000391609111679 0.800329227383)
(7.6594394994e-06 2.11300028102e-05 0.797387807349)
(1.85224539793e-05 2.27107056486e-05 0.800124551361)
(3.49522920152e-05 2.43127648925e-05 0.800320963538)
(4.60936356086e-05 2.89297104836e-05 0.800354953917)
(6.60754371863e-05 3.51805410462e-05 0.800362837151)
(7.79213168741e-05 4.64142071386e-05 0.800363275348)
(0.000106462894279 5.98745796154e-05 0.80036425934)
(0.000116431435495 8.05222586376e-05 0.800361388631)
(0.00016034871076 0.000110299195444 0.800363236381)
(0.00015916011893 0.000140725036627 0.800354361541)
(0.000217690053189 0.000211545503447 0.800357853468)
(0.0001932500496 0.000217352678193 0.800334086118)
(0.0002231665915 0.000416561550891 0.800349132647)
(0.000341011674569 0.000253192609277 0.800334365524)
(1.32577180276e-05 0.000434885304542 0.800347124595)
(7.43788483372e-06 1.71825043171e-05 0.797387247156)
(2.04275574505e-05 1.87970138627e-05 0.800124113873)
(3.6676370341e-05 2.02227726661e-05 0.800320570505)
(5.12887063654e-05 2.49174588742e-05 0.8003546434)
(6.97553953173e-05 3.01301550272e-05 0.800362413199)
(8.98432808781e-05 4.33838932778e-05 0.800363176139)
(0.000110922767496 5.31567940544e-05 0.800363407332)
(0.000144279751769 8.68206937009e-05 0.800361641584)
(0.000158791061045 0.00010052087156 0.800359112885)
(0.000223109810329 0.000195028590954 0.800353265684)
(0.00017981900877 0.000190061938611 0.800339828678)
(0.000317430793851 0.000454165231289 0.800308686977)
(0.000135420958339 0.000179953072893 0.800360512178)
(-8.69792575752e-05 0.00104517037367 0.800287425415)
(-5.73602819691e-06 0.00131668785753 0.800273901837)
(9.27458403646e-06 1.33640992011e-05 0.797387162743)
(2.24470518478e-05 1.45166938961e-05 0.800123932081)
(4.31553186122e-05 1.53798064402e-05 0.800320441944)
(5.70367455766e-05 1.95816879912e-05 0.800354421022)
(8.49167301455e-05 2.37956014882e-05 0.800362606615)
(0.000101010059408 3.56533483411e-05 0.800362876119)
(0.000149767493938 4.50091935297e-05 0.800364663045)
(0.000163268143251 7.31022617851e-05 0.800359833267)
(0.000266428464332 9.84318655408e-05 0.80036138443)
(0.000246628730079 0.000162949254516 0.800339256507)
(0.000476273994757 0.000251524068883 0.800331733367)
(0.000241367982819 0.000196659636183 0.800422169339)
(0.000714683524152 0.00118062698969 0.800352818391)
(0.000185027463294 7.6475758948e-05 0.800319577541)
(8.49386151041e-05 0.000313900422175 0.800231974105)
(8.95312652655e-06 6.53881428809e-06 0.797386874214)
(2.368799258e-05 7.29377272415e-06 0.800123719792)
(4.38129086897e-05 8.16117288859e-06 0.800320259193)
(6.06022609163e-05 1.01535098753e-05 0.800354287104)
(8.61495975279e-05 1.33628546789e-05 0.800362399075)
(0.000111133896759 1.95712190665e-05 0.800362867243)
(0.000148320957036 2.71541253161e-05 0.800363621255)
(0.000196977589839 4.65787293212e-05 0.800358669893)
(0.000242222422682 6.26008618625e-05 0.800348862391)
(0.000382209669627 0.000172581688571 0.800301686909)
(0.000112933295814 0.000197015619279 0.800404666678)
(0.00127299328555 0.000832385599021 0.80026494133)
(8.40622947291e-05 6.72816572841e-05 0.800317420849)
(0 0 0)
(0 0 0)
(9.83004610013e-06 1.73249820939e-06 0.797386853865)
(2.44158118033e-05 1.88817248358e-06 0.800123658306)
(4.6881384347e-05 1.46421604902e-06 0.800320206511)
(6.27509105591e-05 3.3320996609e-06 0.800354238547)
(9.45538116283e-05 2.57990448847e-06 0.800362537516)
(0.000115048377005 1.01692070545e-05 0.800362910675)
(0.000177675336113 4.22226564599e-06 0.800364769246)
(0.000199272846013 3.48150848164e-05 0.800357799338)
(0.000364360777737 -1.44506619304e-06 0.800353620682)
(0.000335923008255 0.000352574654275 0.800386623604)
(0.00123884918617 -0.00032919212343 0.800295711141)
(0.000183458856621 -3.82397108143e-05 0.800430026358)
(0 -0 0)
(0 0 -0)
(-0 0 -0)
(2.26622499323e-06 1.38658741831e-06 0.793862801288)
(5.13044413001e-06 1.51137450147e-06 0.79726172052)
(9.48799614417e-06 1.74573661155e-06 0.797366517554)
(1.18372742627e-05 1.72855105601e-06 0.797369817077)
(1.55151387406e-05 2.02220954325e-06 0.797369617328)
(1.69243133253e-05 1.92126467312e-06 0.797368854611)
(1.91625521854e-05 2.43668005751e-06 0.797368379151)
(1.92239110142e-05 2.08253813666e-06 0.797367434293)
(1.94126681578e-05 2.94923172102e-06 0.797366913556)
(1.77821875367e-05 2.11980105015e-06 0.797365957733)
(1.55826782696e-05 3.4671625496e-06 0.797365493375)
(1.21236127301e-05 2.01332303482e-06 0.797364715078)
(7.78633593452e-06 3.84884170609e-06 0.797364421623)
(2.82564358783e-06 1.92499024861e-06 0.797363996831)
(-2.5757752086e-06 3.99392908933e-06 0.797363975916)
(2.2853817044e-06 6.74453618201e-06 0.797261747064)
(5.49689074212e-06 6.89293310325e-06 0.799953327084)
(9.61866819266e-06 7.25295714735e-06 0.800089897752)
(1.23943209954e-05 8.14136170539e-06 0.800105537191)
(1.57794951349e-05 8.95567339078e-06 0.800107158052)
(1.76862118862e-05 1.08307920503e-05 0.800106716375)
(1.95535874613e-05 1.19160609261e-05 0.800106116745)
(2.01039249982e-05 1.47548537691e-05 0.800105279779)
(1.98284736255e-05 1.59040255939e-05 0.80010454867)
(1.86243057098e-05 1.95628237894e-05 0.800103751553)
(1.59044642057e-05 2.03898658323e-05 0.800103027467)
(1.27205996979e-05 2.42956463566e-05 0.800102479132)
(7.96427975086e-06 2.42226015375e-05 0.800101894047)
(3.01957911032e-06 2.72941010709e-05 0.800101741673)
(-2.50925503141e-06 2.57228679236e-05 0.800101428013)
(2.43653007788e-06 9.08672164999e-06 0.797366451072)
(5.87260927997e-06 9.67921235764e-06 0.800089833162)
(1.03037189596e-05 1.04533899346e-05 0.800269904987)
(1.34926762827e-05 1.13422773777e-05 0.800298141553)
(1.72566565339e-05 1.27190175388e-05 0.800303481668)
(1.94752111039e-05 1.43989937807e-05 0.800303790269)
(2.18365417707e-05 1.6635729239e-05 0.800303247192)
(2.24638922288e-05 1.86858940694e-05 0.800302288261)
(2.27413665458e-05 2.18493569622e-05 0.800301487374)
(2.12277638356e-05 2.35669357512e-05 0.80030042779)
(1.88378917442e-05 2.76088708684e-05 0.800299695526)
(1.48874876332e-05 2.79734054849e-05 0.800298756218)
(9.79200524697e-06 3.23652880801e-05 0.800298292384)
(3.78339470381e-06 3.06427392246e-05 0.800297719348)
(-2.8616454669e-06 3.41570290406e-05 0.800297694067)
(2.48887161164e-06 1.4332359039e-05 0.797369845956)
(6.34836163429e-06 1.49147714881e-05 0.800105523519)
(1.08361869782e-05 1.54491979844e-05 0.800298185812)
(1.44008183258e-05 1.73321685894e-05 0.800330687984)
(1.80833042118e-05 1.92560097332e-05 0.80033734514)
(2.08347774804e-05 2.32090523968e-05 0.800338036692)
(2.28067775554e-05 2.60529272331e-05 0.800337416056)
(2.42165288616e-05 3.19821263861e-05 0.800336566251)
(2.35954089261e-05 3.53702510084e-05 0.800335485053)
(2.31128769001e-05 4.29893667061e-05 0.800334695541)
(1.93293177112e-05 4.61417684852e-05 0.800333488882)
(1.63736703015e-05 5.4168938084e-05 0.800333110139)
(1.00035066645e-05 5.56664832496e-05 0.800331952492)
(4.32128642278e-06 6.15117834873e-05 0.800332195404)
(-2.47568126912e-06 5.96379875969e-05 0.800331341348)
(3.17564137469e-06 1.58567372964e-05 0.797369442366)
(7.53153345262e-06 1.69975091777e-05 0.800106988366)
(1.33716087297e-05 1.81039837657e-05 0.80030341944)
(1.73195110903e-05 1.99027017928e-05 0.80033718101)
(2.26573138868e-05 2.24706641223e-05 0.800344232399)
(2.56164694343e-05 2.59532108186e-05 0.800344726124)
(2.97257450225e-05 3.03191597532e-05 0.800344082447)
(3.08461863081e-05 3.47312744527e-05 0.800342613495)
(3.26675259134e-05 4.12169031254e-05 0.800341580428)
(3.09379065356e-05 4.50787037482e-05 0.800339692662)
(2.8950255998e-05 5.3917278594e-05 0.800338795599)
(2.34941568643e-05 5.46301996256e-05 0.800336766659)
(1.64307444286e-05 6.49376253583e-05 0.800336387465)
(7.35941285978e-06 6.03047915251e-05 0.800334759471)
(-3.50595644533e-06 6.90442399023e-05 0.800335198225)
(3.13404908387e-06 2.01198864831e-05 0.797368854448)
(8.22867829764e-06 2.12787003725e-05 0.800106638604)
(1.41806181843e-05 2.21077015775e-05 0.800303820633)
(1.90795755724e-05 2.5174648132e-05 0.800337956485)
(2.41174539586e-05 2.81555407315e-05 0.800344961242)
(2.85007794801e-05 3.48484988878e-05 0.800345582165)
(3.13211295233e-05 3.94272254277e-05 0.800344553321)
(3.48115143032e-05 5.01766383909e-05 0.800343460506)
(3.36150590057e-05 5.58294759292e-05 0.800341594428)
(3.54730787126e-05 7.09953622733e-05 0.800340782348)
(2.8561699165e-05 7.6378164471e-05 0.80033826813)
(2.71022204745e-05 9.42506243999e-05 0.800338604167)
(1.54564929404e-05 9.65876022107e-05 0.80033558223)
(8.2653504193e-06 0.000111046586612 0.800337590379)
(-1.87478694869e-06 0.000106938432446 0.800334687928)
(4.44289867203e-06 2.04877952908e-05 0.797368052607)
(1.0184908853e-05 2.20911731413e-05 0.800105776024)
(1.8705813618e-05 2.35438436754e-05 0.800303091062)
(2.40115632279e-05 2.6316814275e-05 0.80033702045)
(3.25280723672e-05 3.01785078335e-05 0.800343993531)
(3.68893863887e-05 3.57074065254e-05 0.800343868296)
(4.49955514159e-05 4.27797494253e-05 0.800342900335)
(4.71720494877e-05 4.99678573651e-05 0.800340131957)
(5.34010328735e-05 6.17944257282e-05 0.800338753548)
(5.14009288355e-05 6.76246764193e-05 0.800334524198)
(5.21262712857e-05 8.65298673969e-05 0.800333573499)
(4.3628432143e-05 8.41361280079e-05 0.800327941178)
(3.3126360913e-05 0.000110318528472 0.800328382448)
(1.74769895392e-05 9.24639546375e-05 0.800322542828)
(-5.46710533604e-06 0.000118461208881 0.800324892188)
(4.17374480373e-06 2.282750415e-05 0.797367353531)
(1.10554448635e-05 2.45803101886e-05 0.800105060634)
(1.93688539356e-05 2.57083689003e-05 0.800302273936)
(2.63940102799e-05 3.00872296024e-05 0.800336282681)
(3.37622750131e-05 3.39442387479e-05 0.80034293556)
(4.11575390702e-05 4.41199444088e-05 0.800343137742)
(4.55807559018e-05 5.01915824668e-05 0.80034128473)
(5.38120255297e-05 6.84703157025e-05 0.800339718002)
(5.12558120311e-05 7.60726176382e-05 0.800336107816)
(6.02027603273e-05 0.000106123537546 0.80033550526)
(4.5103021215e-05 0.000112844151186 0.800329389029)
(5.09388953051e-05 0.000155560162457 0.800332640842)
(2.36952580836e-05 0.000155765382792 0.800323333332)
(1.55180392774e-05 0.000197753105025 0.800333001598)
(4.09593261985e-07 0.0001881854762 0.800322699312)
(6.20767359561e-06 2.19131016345e-05 0.797366391724)
(1.36337431233e-05 2.38300497762e-05 0.8001039557)
(2.60789333158e-05 2.54663500773e-05 0.800301204971)
(3.31329639174e-05 2.92338361624e-05 0.800334685056)
(4.68906773639e-05 3.42091905903e-05 0.800341375671)
(5.32155169582e-05 4.21024244661e-05 0.800339989617)
(6.93597466802e-05 5.2147732519e-05 0.800338658162)
(7.3054612268e-05 6.30294744057e-05 0.800332937335)
(9.10643585558e-05 8.29278672219e-05 0.800331454662)
(8.82346328274e-05 9.10480156971e-05 0.80032069148)
(0.000101830495199 0.000131157472341 0.800320904385)
(8.7058955779e-05 0.000117599293547 0.800302638695)
(7.58587362567e-05 0.000187841474594 0.800307786286)
(4.66578450308e-05 0.000120220573678 0.80028305468)
(-1.6171645456e-05 0.000199793834311 0.800292431474)
(5.57590111325e-06 2.13105541231e-05 0.79736572362)
(1.46306310885e-05 2.35183619607e-05 0.800103278314)
(2.62093500435e-05 2.48119110014e-05 0.800300329209)
(3.60278721325e-05 3.01595563923e-05 0.800333982346)
(4.69700560808e-05 3.43147437135e-05 0.800340092968)
(5.91820891713e-05 4.78414475096e-05 0.800339536821)
(6.65264165643e-05 5.44134666769e-05 0.800336330203)
(8.46037276663e-05 8.25938925063e-05 0.800333814727)
(7.93334914648e-05 9.01861097428e-05 0.800326557315)
(0.000108675919777 0.000147096300259 0.800326590536)
(7.2633254855e-05 0.000149769287079 0.800310081623)
(0.000110473916694 0.000255451400955 0.800323344972)
(3.09088986045e-05 0.000239816494207 0.800289199981)
(2.19677497941e-05 0.000380445290772 0.800346248423)
(2.85840264118e-06 0.000365213002958 0.800291322926)
(8.25336473274e-06 1.9245911376e-05 0.797364751847)
(1.73754822834e-05 2.11864658161e-05 0.800102106476)
(3.47417132001e-05 2.25911969221e-05 0.80029926796)
(4.36130146674e-05 2.71339701117e-05 0.800332058524)
(6.49529659064e-05 3.22093293867e-05 0.800338490987)
(7.34078790891e-05 4.26208761329e-05 0.80033495056)
(0.00010413565596 5.39641871876e-05 0.800333565027)
(0.000108855663978 7.04801598936e-05 0.800321631924)
(0.000155719567539 9.82580243572e-05 0.800321536721)
(0.000148470152281 0.000112144507223 0.800292889126)
(0.000212988879631 0.000190078415889 0.800299895813)
(0.000186891985539 0.000154453625075 0.800237070199)
(0.000220513560729 0.000355382894315 0.800269803211)
(0.000358662506373 0.000111770200287 0.800081693404)
(-7.20291274423e-05 0.0003509643077 0.800151914039)
(7.25790496583e-06 1.49545161831e-05 0.797364253236)
(1.83543739528e-05 1.71135290639e-05 0.800101624388)
(3.39939445582e-05 1.83364505116e-05 0.800298523432)
(4.66076670858e-05 2.3248324283e-05 0.800331638745)
(6.28218508935e-05 2.67297339896e-05 0.800337187856)
(8.1029708945e-05 4.04930693518e-05 0.800335271037)
(9.44202101989e-05 4.58894708804e-05 0.800330423075)
(0.000128966413537 8.01980758106e-05 0.800325449426)
(0.000121381178572 8.33078705379e-05 0.800311932849)
(0.000201514354025 0.000172263889974 0.800311053277)
(0.000117920027106 0.000147178977 0.800269655755)
(0.000273337781916 0.000381829528338 0.800344338088)
(6.36387169508e-05 0.000119450589672 0.800134005386)
(-0.000223299132024 0.00086871072078 0.800612894542)
(-5.03551806465e-05 0.0011632581093 0.800329241027)
(9.97062601515e-06 1.21340385652e-05 0.797363488511)
(2.04392207717e-05 1.36152875206e-05 0.800100640641)
(4.24482751567e-05 1.41697655405e-05 0.800297734547)
(5.2820487813e-05 1.87076356319e-05 0.800329760406)
(8.25345631466e-05 2.15889841451e-05 0.800336080842)
(9.26617600291e-05 3.39240446625e-05 0.800329720663)
(0.000143911708976 3.99957878241e-05 0.800329031926)
(0.000146403852215 6.61709195636e-05 0.800306473257)
(0.000248089771583 8.33469552577e-05 0.800311426142)
(0.000213147563301 0.00012024871566 0.800239350468)
(0.000416877414547 0.000225886203128 0.800290638652)
(0.000270316948734 0.000144012191399 0.799968767177)
(0.000539240413277 0.00108513078056 0.800481186187)
(0.000179578820352 4.85333847166e-05 0.800251122112)
(2.8613184281e-05 0.000145687155314 0.800194632007)
(8.9529083108e-06 4.44486228765e-06 0.797363279522)
(2.10286012498e-05 5.64993930051e-06 0.800100462046)
(4.09657704976e-05 6.57105991919e-06 0.800297325388)
(5.47730783916e-05 8.37386076023e-06 0.800329731665)
(7.83357853417e-05 1.04447937757e-05 0.800335129133)
(9.95653654084e-05 1.61108250193e-05 0.800330785108)
(0.000126978406728 2.10488037335e-05 0.80032549037)
(0.000173289482019 3.98330431176e-05 0.800312564858)
(0.000176392049396 4.72571596052e-05 0.800292680231)
(0.000321354998295 0.00012496674048 0.800267459909)
(6.9247473227e-05 9.5086828149e-05 0.800151927069)
(0.00111456161309 0.00057780754086 0.800561028577)
(7.71992185795e-05 0.000153232071831 0.800208939248)
(0 0 0)
(0 0 0)
(1.041193131e-05 1.43053980444e-06 0.797362942873)
(2.16707836542e-05 1.80088582467e-06 0.800100010557)
(4.53853829136e-05 1.14513977086e-06 0.800297040328)
(5.70049420944e-05 3.81943731131e-06 0.800328742988)
(9.0439573239e-05 2.27754670152e-06 0.80033488562)
(0.000103448817829 1.29436275387e-05 0.800327069839)
(0.000168478975601 4.55588445262e-06 0.800326349511)
(0.000176539393165 4.67418448419e-05 0.800295667061)
(0.000342979779493 3.37250058946e-06 0.800302182473)
(0.000295847316007 0.000206122893439 0.800177780053)
(0.000894303275059 -0.000353306495123 0.800370667574)
(0.000222949714786 -3.96817887644e-05 0.800249671055)
(0 0 0)
(0 0 -0)
(-0 -0 0)
(2.0054863639e-06 1.52735351499e-06 0.793857320399)
(4.51906722215e-06 1.60865011047e-06 0.797256096788)
(8.46580940138e-06 1.79733414144e-06 0.797360720284)
(1.05631110199e-05 1.87250786282e-06 0.797363751966)
(1.40008426017e-05 2.16502100515e-06 0.79736327645)
(1.51947940602e-05 2.32923138713e-06 0.797362101978)
(1.74007022827e-05 2.79807063957e-06 0.797361243606)
(1.7243499108e-05 2.97364645026e-06 0.797359798073)
(1.76547234957e-05 3.6270210204e-06 0.79735881905)
(1.58337536562e-05 3.71479421713e-06 0.79735736766)
(1.41044358607e-05 4.5153714699e-06 0.797356431185)
(1.06079489498e-05 4.40272020528e-06 0.797355291696)
(6.86238423034e-06 5.23191854127e-06 0.797354628553)
(2.1951172576e-06 4.83819981836e-06 0.797354086119)
(-2.75077070484e-06 5.51133893007e-06 0.797353951785)
(1.97636706594e-06 5.97799537249e-06 0.797256191042)
(4.82036110956e-06 6.07046148788e-06 0.799946949103)
(8.607478979e-06 6.39642980451e-06 0.800083000514)
(1.11910881181e-05 7.0455052269e-06 0.800098345568)
(1.43922328514e-05 7.82573593549e-06 0.800099671899)
(1.61155788367e-05 9.25796037805e-06 0.800098858411)
(1.80233164513e-05 1.03573064493e-05 0.800097842177)
(1.83649372989e-05 1.24549370744e-05 0.800096569346)
(1.84248530519e-05 1.36852877348e-05 0.800095321844)
(1.69858101067e-05 1.62648361301e-05 0.800094130754)
(1.48621085643e-05 1.72941279432e-05 0.800092844023)
(1.15119127614e-05 1.9906509408e-05 0.800092069833)
(7.37326323537e-06 2.02503742978e-05 0.800090985465)
(2.53892570631e-06 2.21869020235e-05 0.800090881502)
(-2.70079805701e-06 2.13884862706e-05 0.800090296507)
(2.0479577436e-06 8.81931319903e-06 0.797360582219)
(5.10774326642e-06 9.21466820132e-06 0.800082839253)
(9.06745046631e-06 9.82798323395e-06 0.800261839947)
(1.20450624399e-05 1.069839496e-05 0.800289649519)
(1.53930757097e-05 1.20546292317e-05 0.800294663077)
(1.74550664402e-05 1.38540352279e-05 0.800294527027)
(1.95002017023e-05 1.59877886934e-05 0.800293551938)
(2.00548451227e-05 1.84518936183e-05 0.800292026319)
(2.02102367251e-05 2.12130038653e-05 0.800290708977)
(1.87663557048e-05 2.39594399248e-05 0.800289064107)
(1.65750683826e-05 2.69698862072e-05 0.800287811338)
(1.29284843155e-05 2.92882869161e-05 0.800286426667)
(8.43415101755e-06 3.17624044335e-05 0.800285566411)
(3.04550042908e-06 3.27118731295e-05 0.800284853981)
(-2.78203321391e-06 3.36553737139e-05 0.800284725734)
(2.173500425e-06 1.31507643881e-05 0.797363941638)
(5.63924139377e-06 1.35559566174e-05 0.800098384339)
(9.8136556782e-06 1.40789454653e-05 0.800289807843)
(1.31781845902e-05 1.55811494229e-05 0.800321856608)
(1.67221249436e-05 1.74576218067e-05 0.800328127622)
(1.92264750386e-05 2.06274122496e-05 0.800328404053)
(2.13855541426e-05 2.34754991501e-05 0.800327231414)
(2.24102854447e-05 2.80586893806e-05 0.800325920078)
(2.24866910825e-05 3.15293107999e-05 0.800324092692)
(2.13973608144e-05 3.71260529936e-05 0.800322949351)
(1.88138202574e-05 4.05176236838e-05 0.800320824952)
(1.51522622632e-05 4.6051128363e-05 0.800320403308)
(9.91359304573e-06 4.81151248485e-05 0.800318283076)
(3.94475770853e-06 5.18173500398e-05 0.800318940812)
(-2.79161948358e-06 5.11490542804e-05 0.8003173698)
(2.63409301269e-06 1.53839832643e-05 0.797362960425)
(6.61068994094e-06 1.61684436389e-05 0.80009932291)
(1.1686021141e-05 1.70465370206e-05 0.800294559399)
(1.54741726527e-05 1.87594246817e-05 0.800327740562)
(2.0017847474e-05 2.12803062075e-05 0.800334338934)
(2.28750393669e-05 2.48269515765e-05 0.800334126369)
(2.61293654787e-05 2.89307113215e-05 0.800332861694)
(2.72648791821e-05 3.39368245391e-05 0.800330457834)
(2.83104467413e-05 3.94527785603e-05 0.800328638107)
(2.68217534395e-05 4.53340912184e-05 0.800325734667)
(2.45652345527e-05 5.16110350294e-05 0.800323952314)
(1.97452698541e-05 5.6974968313e-05 0.800321145804)
(1.36016307501e-05 6.2305549691e-05 0.800319956464)
(5.75552018301e-06 6.48883128793e-05 0.800318179289)
(-3.02536491021e-06 6.68507492672e-05 0.800318308617)
(2.81996414235e-06 1.87594655983e-05 0.79736236583)
(7.55531578134e-06 1.95547685888e-05 0.800098858937)
(1.31374632504e-05 2.03680454704e-05 0.800294723006)
(1.77854887876e-05 2.27820365116e-05 0.800328296093)
(2.27867924981e-05 2.58230988166e-05 0.800334712414)
(2.67006963516e-05 3.1028997481e-05 0.800334739913)
(3.02345916693e-05 3.58865923321e-05 0.800332767278)
(3.2638025391e-05 4.37396643263e-05 0.800331054541)
(3.35592995961e-05 5.008500498e-05 0.800327727627)
(3.32300257269e-05 6.02214175848e-05 0.800326583558)
(3.0141432364e-05 6.70553602595e-05 0.800321967174)
(2.55735849467e-05 7.76220694594e-05 0.800322703785)
(1.76571840387e-05 8.25580777578e-05 0.800317107354)
(8.36222357628e-06 8.96565137624e-05 0.800320600482)
(-3.05118027952e-06 8.94054922295e-05 0.800315478039)
(3.64333465488e-06 1.99407586896e-05 0.797360729884)
(9.12857166705e-06 2.10377933413e-05 0.800097222614)
(1.62994913281e-05 2.22128418047e-05 0.80029331856)
(2.15894750318e-05 2.48038798293e-05 0.800326446794)
(2.84630615431e-05 2.86001111111e-05 0.800332759963)
(3.29420368665e-05 3.41506401465e-05 0.800331469697)
(3.87834454573e-05 4.06814063364e-05 0.800329516374)
(4.13890010428e-05 4.90239655081e-05 0.800325130281)
(4.4709339839e-05 5.85319835696e-05 0.800322368407)
(4.37125730668e-05 6.93389762328e-05 0.800316342059)
(4.19039015626e-05 8.12175029432e-05 0.800313543151)
(3.51551508522e-05 9.25746578108e-05 0.800306615371)
(2.55927223624e-05 0.00010355340629 0.800304935717)
(1.24905386907e-05 0.000110751650606 0.800299737396)
(-3.38421563342e-06 0.000115028243341 0.800300526639)
(3.83835994446e-06 2.15989690367e-05 0.79736007802)
(1.04450521896e-05 2.27514946741e-05 0.800096411928)
(1.82460810158e-05 2.388475702e-05 0.800292215441)
(2.49367275931e-05 2.72034565565e-05 0.800325504095)
(3.2403169601e-05 3.14338052556e-05 0.80033124737)