/*--------------------------------*- C++ -*----------------------------------*\
| =========                 |                                                 |
| \\      /  F ield         | OpenFOAM: The Open Source CFD Toolbox           |
|  \\    /   O peration     | Version:  2406                                  |
|   \\  /    A nd           | Website:  www.openfoam.com                      |
|    \\/     M anipulation  |                                                 |
\*---------------------------------------------------------------------------*/
FoamFile
{
    version     2.0;
    format      ascii;
    arch        "LSB;label=32;scalar=64";
    class       volVectorField;
    location    "0.01";
    object      U_0;
}
// * * * * * * * * * * * * * * * * * * * * * * * * * * * * * * * * * * * * * //

dimensions      [0 1 -1 0 0 0 0];

internalField   nonuniform List<vector> 
29768
(
(2.26311136453e-06 1.74537557885e-06 0.793914011121)
(5.05741008051e-06 1.81393472857e-06 0.797295504518)
(9.50352069505e-06 2.02151965207e-06 0.797399330732)
(1.18486350161e-05 2.07346450052e-06 0.797402517742)
(1.57166958404e-05 2.41247327134e-06 0.797402459019)
(1.70940385119e-05 2.53333982372e-06 0.797401631698)
(1.95617220351e-05 3.10013404533e-06 0.79740140149)
(1.94806071513e-05 3.16756068208e-06 0.797400406311)
(1.99134865915e-05 4.00597880642e-06 0.797400211427)
(1.80178960722e-05 3.8573894471e-06 0.797399192836)
(1.60255609026e-05 4.9742103225e-06 0.797399083644)
(1.22758014286e-05 4.4418417816e-06 0.797398174036)
(7.9907398288e-06 5.7357687486e-06 0.79739819046)
(2.91386647272e-06 4.78238118074e-06 0.797397521922)
(-2.74290336751e-06 6.01721447565e-06 0.79739769134)
(2.21566558052e-06 6.61622931814e-06 0.797295519091)
(5.39795905247e-06 6.73748000474e-06 0.799975204148)
(9.66990962325e-06 7.10632854173e-06 0.800110231075)
(1.25862196196e-05 7.840354232e-06 0.800125588461)
(1.61836555438e-05 8.69898336787e-06 0.800127329495)
(1.8175927272e-05 1.0355828149e-05 0.800126901176)
(2.029252249e-05 1.15580238689e-05 0.800126586103)
(2.07939010432e-05 1.4059547494e-05 0.800125781087)
(2.07933069854e-05 1.53785278154e-05 0.800125441404)
(1.93569141717e-05 1.85767170347e-05 0.800124628699)
(1.68606093423e-05 1.96030506073e-05 0.800124350491)
(1.33078034967e-05 2.30101566441e-05 0.800123644815)
(8.55131571295e-06 2.31582994608e-05 0.800123477983)
(3.29548770682e-06 2.58621169331e-05 0.800122993652)
(-2.61352528767e-06 2.46222663109e-05 0.800122991924)
(2.31364603445e-06 9.85532034538e-06 0.797399331917)
(5.7458236289e-06 1.02977299679e-05 0.800110222724)
(1.02460393368e-05 1.0995991538e-05 0.800287891201)
(1.36151663442e-05 1.19337434711e-05 0.800315667213)
(1.74404016703e-05 1.34676213336e-05 0.800321074315)
(1.98032012925e-05 1.54091261418e-05 0.800321526493)
(2.21903024748e-05 1.78797548889e-05 0.800321296314)
(2.28806963902e-05 2.04905496638e-05 0.800320583713)
(2.31656982831e-05 2.38087734244e-05 0.800320195658)
(2.16091993218e-05 2.65477480977e-05 0.800319427159)
(1.92378649951e-05 3.03983135678e-05 0.800319127863)
(1.51685203697e-05 3.23092503012e-05 0.800318419759)
(1.01006661368e-05 3.5879947352e-05 0.800318272432)
(4.02051735184e-06 3.593135742e-05 0.800317732317)
(-2.73226291015e-06 3.80262521846e-05 0.800317781111)
(2.41949886077e-06 1.45994917049e-05 0.797402581342)
(6.31006857498e-06 1.51151481899e-05 0.80012562475)
(1.10217589295e-05 1.57459639818e-05 0.800315705214)
(1.48664399118e-05 1.74752626735e-05 0.800347677972)
(1.8856480588e-05 1.95660402222e-05 0.800354435561)
(2.17887910481e-05 2.32521839052e-05 0.800355255497)
(2.41684601282e-05 2.64223553016e-05 0.800355070813)
(2.55344441245e-05 3.19206917341e-05 0.800354407788)
(2.5453588005e-05 3.57628595302e-05 0.800353971025)
(2.45633663289e-05 4.27886503954e-05 0.800353259748)
(2.13238692796e-05 4.64334215239e-05 0.80035285509)
(1.75986819438e-05 5.38403810047e-05 0.800352230835)
(1.13715309774e-05 5.57399196202e-05 0.800351907506)
(4.93658304176e-06 6.12558528983e-05 0.800351465884)
(-2.57970950267e-06 5.97890163949e-05 0.800351337195)
(2.97284429878e-06 1.71458242202e-05 0.797402495841)
(7.40914209885e-06 1.80555628465e-05 0.800127354405)
(1.32071458101e-05 1.91057318233e-05 0.800321114093)
(1.74902810649e-05 2.10151076836e-05 0.800354421132)
(2.27673240429e-05 2.38970459604e-05 0.800361631479)
(2.60238398327e-05 2.78029591537e-05 0.800362512101)
(2.9993032466e-05 3.26095652029e-05 0.800362415179)
(3.13089829807e-05 3.80128311556e-05 0.800361627357)
(3.29726251283e-05 4.47896275399e-05 0.80036133239)
(3.12520073379e-05 5.06945557686e-05 0.800360341095)
(2.92450301161e-05 5.90825556109e-05 0.800360203909)
(2.35944970919e-05 6.32573571381e-05 0.800359081266)
(1.68272276452e-05 7.16128668714e-05 0.800359166534)
(7.68258095578e-06 7.13244399122e-05 0.800358049661)
(-3.10915256488e-06 7.6608014879e-05 0.800358401546)
(3.11958218778e-06 2.08901220114e-05 0.797401791538)
(8.43899931882e-06 2.18778713534e-05 0.800127018432)
(1.47050727161e-05 2.28540902459e-05 0.80032165346)
(2.00500553786e-05 2.57106884611e-05 0.800355328702)
(2.56413048442e-05 2.9101774139e-05 0.800362648634)
(3.03149352333e-05 3.53640721051e-05 0.800363598392)
(3.41022929525e-05 4.0735563315e-05 0.800363466691)
(3.74006310887e-05 5.06886470381e-05 0.800362767721)
(3.77896798643e-05 5.75535627923e-05 0.800362322615)
(3.85044179406e-05 7.14858510499e-05 0.800361533508)
(3.35486465015e-05 7.83354604852e-05 0.800360998446)
(2.98264878692e-05 9.47458143139e-05 0.800360267407)
(1.91960092397e-05 9.82156911851e-05 0.800359573373)
(9.74123671681e-06 0.00011215025505 0.800358942197)
(-2.38010897265e-06 0.000108749398013 0.800358499273)
(4.13792867642e-06 2.22250469102e-05 0.797401517759)
(1.02281805478e-05 2.35219573933e-05 0.800126685306)
(1.85045569172e-05 2.49530147129e-05 0.800321429222)
(2.44393798519e-05 2.79001335474e-05 0.800355119043)
(3.26326826176e-05 3.23012312001e-05 0.800362528749)
(3.76616374712e-05 3.85247358683e-05 0.800363356486)
(4.52580285368e-05 4.63664806839e-05 0.800363412511)
(4.80490125808e-05 5.54429999063e-05 0.800362358535)
(5.36822204737e-05 6.77383620936e-05 0.800362353834)
(5.19467849171e-05 7.81194731862e-05 0.800360704421)
(5.24257659883e-05 9.57515401992e-05 0.800361092987)
(4.34013561219e-05 0.000102166361819 0.800358642226)
(3.41111087199e-05 0.000123024139594 0.800359498276)
(1.78724572933e-05 0.000117550239431 0.800356383736)
(-4.49595432891e-06 0.000133640275056 0.800357686233)
(4.24390853819e-06 2.41347903773e-05 0.797400720878)
(1.16988310907e-05 2.55705460051e-05 0.800126031366)
(2.04571630295e-05 2.68964532454e-05 0.800320871209)
(2.82098473865e-05 3.09691137759e-05 0.800354615006)
(3.65518383728e-05 3.56453513129e-05 0.800362006878)
(4.44420332833e-05 4.51277337365e-05 0.80036293298)
(5.10205414441e-05 5.2914955293e-05 0.800362855158)
(5.87584657852e-05 6.97636986627e-05 0.800362079579)
(6.04497682046e-05 8.036767797e-05 0.800361574259)
(6.65149027367e-05 0.000107940755715 0.800360684312)
(5.76441521651e-05 0.000118886172652 0.800359596855)
(5.72273548255e-05 0.00015796332438 0.800358926909)
(3.45623238273e-05 0.000161324064802 0.800356394263)
(1.90387723586e-05 0.000203754596907 0.800355810374)
(-2.24763341922e-06 0.000194035959595 0.80035388734)
(5.75399017302e-06 2.38639050901e-05 0.797400468684)
(1.40445542439e-05 2.54239035032e-05 0.800125673055)
(2.59176658225e-05 2.71193123249e-05 0.800320496035)
(3.41851978972e-05 3.10808509701e-05 0.800354157468)
(4.7147533414e-05 3.68883355302e-05 0.800361701519)
(5.50159921963e-05 4.57302265041e-05 0.800362362056)
(6.99068578022e-05 5.70528021629e-05 0.800362739036)
(7.55000651607e-05 7.11490120156e-05 0.800361095793)
(9.18643887134e-05 9.18726858976e-05 0.800361785975)
(9.05495307347e-05 0.000109487699439 0.800358339744)
(0.000102854408415 0.000146655528137 0.800360128345)
(8.7019463801e-05 0.000154423022752 0.800353587975)
(8.1609467762e-05 0.000212111360656 0.800356401934)
(4.82627776213e-05 0.000179512988226 0.800346612463)
(-1.70564065529e-05 0.000230769015942 0.800352061266)
(5.72654400018e-06 2.31232122029e-05 0.79739973248)
(1.58872418322e-05 2.48593920546e-05 0.800125076757)
(2.80331687091e-05 2.63938038425e-05 0.800319964004)
(3.90432028629e-05 3.13787001054e-05 0.80035369128)
(5.15816967041e-05 3.68961901051e-05 0.80036117092)
(6.46993406382e-05 4.95370124656e-05 0.800362040999)
(7.64518517731e-05 5.92651506977e-05 0.800362062491)
(9.35695659018e-05 8.5520497235e-05 0.800361115101)
(9.87920837373e-05 9.95745999286e-05 0.800360262784)
(0.00012159437983 0.000153204959911 0.800359001394)
(0.000104221615867 0.000166675804485 0.80035529509)
(0.000128559727947 0.000263122323482 0.800354981085)
(7.01753270551e-05 0.000256214747065 0.800338897065)
(2.89192707496e-05 0.000414418410463 0.800339847156)
(-2.1117589969e-05 0.000389305547653 0.800327694061)
(7.62211045632e-06 2.10201728299e-05 0.797399554256)
(1.84164403771e-05 2.25926400796e-05 0.80012478649)
(3.47661026778e-05 2.41872234501e-05 0.800319692231)
(4.58348942124e-05 2.87824808545e-05 0.80035330726)
(6.57206617825e-05 3.49955638901e-05 0.800361077913)
(7.74791798972e-05 4.61683377546e-05 0.800361499449)
(0.00010588327893 5.95437353469e-05 0.800362476623)
(0.000115749579478 8.00703484069e-05 0.800359635266)
(0.00015945900763 0.000109661295218 0.800361480176)
(0.000158183687582 0.000139875251882 0.800352684097)
(0.00021646757154 0.00021029168065 0.80035616605)
(0.000192000442076 0.000215900459295 0.800332567131)
(0.000221837719593 0.000414070864679 0.800347480064)
(0.000338403272493 0.00025145733996 0.800332576992)
(1.30931152268e-05 0.000431972704374 0.800345194141)
(7.40327802996e-06 1.70971643138e-05 0.797398998277)
(2.0310458045e-05 1.87022475753e-05 0.800124352142)
(3.64790661598e-05 2.01209581735e-05 0.800319302168)
(5.09983849959e-05 2.4793941823e-05 0.800352999659)
(6.93722878073e-05 2.99744433899e-05 0.800360657886)
(8.93291646688e-05 4.31592444426e-05 0.800361403741)
(0.000110292230705 5.28634927029e-05 0.800361634232)
(0.00014343355732 8.63477688918e-05 0.800359896803)
(0.000157829896055 9.99209676174e-05 0.800357395655)
(0.000221773372126 0.000193917791999 0.800351626463)
(0.000178601720234 0.000188827123659 0.800338283202)
(0.000315510041465 0.000451583008316 0.800307497731)
(0.000134457924338 0.000179088116205 0.80035845759)
(-8.59582786283e-05 0.00103783007029 0.80028646653)
(-5.22649837013e-06 0.00130739713643 0.800272645425)
(9.22894155655e-06 1.32968253337e-05 0.79739891499)
(2.23174124416e-05 1.44448432676e-05 0.800124172613)
(4.29228130122e-05 1.53048334216e-05 0.800319175834)
(5.67136306629e-05 1.94871019704e-05 0.800352780657)
(8.44565266724e-05 2.36757683848e-05 0.800360852879)
(0.000100429254396 3.54706050175e-05 0.800361110231)
(0.000148941049803 4.47660182531e-05 0.800362889781)
(0.0001622844461 7.26993474954e-05 0.80035811536)
(0.000264916589863 9.78608944978e-05 0.800359684021)
(0.000245019845622 0.000161948013153 0.800337758948)
(0.000473599721746 0.000250085383588 0.800330370644)
(0.000239886470873 0.000195379061361 0.800419583781)
(0.000709794775793 0.00117241681029 0.800351416653)
(0.000184488122808 7.68400078573e-05 0.800317836305)
(8.48526794342e-05 0.00031340153121 0.800230599704)
(8.9102010699e-06 6.51388908679e-06 0.797398628414)
(2.35512334693e-05 7.26353292227e-06 0.800123961728)
(4.35750632955e-05 8.1271918427e-06 0.800318994457)
(6.02579488738e-05 1.01108542921e-05 0.800352648232)
(8.56745345745e-05 1.33032007266e-05 0.800360647413)
(0.000110495052784 1.94800129882e-05 0.80036110455)
(0.000147470527808 2.7019619267e-05 0.800361860067)
(0.00019581161612 4.63411953387e-05 0.800356979361)
(0.000240713944738 6.22387822e-05 0.800347276208)
(0.000379971279782 0.000171476410412 0.800300624454)
(0.000112498649555 0.00019558589578 0.800402250178)
(0.0012639902823 0.000826697296629 0.800264570008)
(8.43043703169e-05 6.70742732445e-05 0.800315753817)
(0 0 0)
(0 0 0)
(9.78216348618e-06 1.7296570661e-06 0.797398609173)
(2.42755606261e-05 1.88742728158e-06 0.800123901809)
(4.66291803601e-05 1.46710790733e-06 0.800318943357)
(6.23970268765e-05 3.32783991277e-06 0.800352601595)
(9.40422536466e-05 2.58046478836e-06 0.800360787692)
(0.000114389261145 1.01379964603e-05 0.800361151461)
(0.000176695515199 4.21984291182e-06 0.800363007406)
(0.000198073460565 3.46835436776e-05 0.800356122546)
(0.000362305874564 -1.48597874352e-06 0.800351993583)
(0.000333638250514 0.000349987440395 0.80038470051)
(0.00123045560484 -0.000326238602496 0.800294994077)
(0.000182842817357 -3.80005947432e-05 0.800428015006)
(0 -0 0)
(0 0 -0)
(-0 0 -0)
(2.2542700306e-06 1.38424230994e-06 0.793893110205)
(5.10510339072e-06 1.50732965255e-06 0.797274619635)
(9.43867314714e-06 1.73928320763e-06 0.797378419052)
(1.17769994729e-05 1.72310034405e-06 0.797381676391)
(1.5434767761e-05 2.01486828649e-06 0.797381476672)
(1.68370262389e-05 1.91643176442e-06 0.797380718277)
(1.90646201855e-05 2.4283883609e-06 0.797380246745)
(1.91248489233e-05 2.07970561264e-06 0.797379307527)
(1.93160466312e-05 2.93987951926e-06 0.797378791496)
(1.76922807324e-05 2.12065336343e-06 0.797377841229)
(1.55093216955e-05 3.45681992751e-06 0.797377381593)
(1.20667121029e-05 2.01887398311e-06 0.797376607395)
(7.75658887067e-06 3.83791777188e-06 0.797376317699)
(2.82199156571e-06 1.93368182542e-06 0.797375894276)
(-2.54993936005e-06 3.98296597322e-06 0.797375875207)
(2.27344229771e-06 6.70370238544e-06 0.797274646062)
(5.46796396456e-06 6.85369882209e-06 0.799955127822)
(9.56998230035e-06 7.21262133312e-06 0.800090482299)
(1.23305343168e-05 8.09645351997e-06 0.800105908924)
(1.57001071681e-05 8.90620608681e-06 0.800107496627)
(1.75951514261e-05 1.07699441652e-05 0.800107053208)
(1.94561598383e-05 1.18489511418e-05 0.800106457958)
(2.00012257072e-05 1.46704528842e-05 0.80010562583)
(1.97320992161e-05 1.58127820748e-05 0.800104901022)
(1.85315299802e-05 1.94498206158e-05 0.800104108584)
(1.5831464193e-05 2.02714539969e-05 0.800103391021)
(1.2662138403e-05 2.41551634155e-05 0.800102845665)
(7.93486743904e-06 2.40815195492e-05 0.800102265978)
(3.01573659789e-06 2.7137558133e-05 0.800102113496)
(-2.4836660506e-06 2.55746059392e-05 0.800101803145)
(2.42488377211e-06 9.04519719793e-06 0.797378352967)
(5.84345863803e-06 9.63244655134e-06 0.80009041792)
(1.02538243067e-05 1.04013617813e-05 0.800269137743)
(1.34247290552e-05 1.12873215603e-05 0.800297061209)
(1.71716987283e-05 1.26563045817e-05 0.800302319515)
(1.9376802308e-05 1.4330085446e-05 0.800302612829)
(2.17295278008e-05 1.65527869718e-05 0.800302071501)
(2.2351440784e-05 1.85970693728e-05 0.800301117939)
(2.26322926575e-05 2.17390237682e-05 0.800300323519)
(2.11243669717e-05 2.34564903816e-05 0.800299270306)
(1.87521609594e-05 2.7468419703e-05 0.800298544345)
(1.48206209114e-05 2.78452930863e-05 0.80029761045)
(9.75542655497e-06 3.22009319282e-05 0.80029715104)
(3.77755819361e-06 3.05059692945e-05 0.800296580758)
(-2.83278978576e-06 3.39858724752e-05 0.800296556632)
(2.47744401847e-06 1.42495509949e-05 0.797381705235)
(6.31656314178e-06 1.48325294924e-05 0.800105895463)
(1.07850266498e-05 1.53668963102e-05 0.800297105501)
(1.43294911201e-05 1.72411653273e-05 0.800329253071)
(1.79970477712e-05 1.91538572475e-05 0.800335810321)
(2.07316793084e-05 2.30855935725e-05 0.800336480428)
(2.26991435249e-05 2.59120635328e-05 0.800335861054)
(2.40979665261e-05 3.18098302027e-05 0.800335015847)
(2.34875632894e-05 3.51762695913e-05 0.800333943105)
(2.30028659887e-05 4.27569937912e-05 0.800333158673)
(1.92471194381e-05 4.5887171501e-05 0.800331961545)
(1.63019295697e-05 5.38778766125e-05 0.800331585282)
(9.97033825212e-06 5.53605136285e-05 0.800330436468)
(4.31456350337e-06 6.11859389923e-05 0.800330677605)
(-2.44877744746e-06 5.9315172324e-05 0.800329829632)
(3.15953014561e-06 1.57782672501e-05 0.79738130288)
(7.49238746129e-06 1.69106851186e-05 0.800107327808)
(1.33049172994e-05 1.80113772111e-05 0.800302257722)
(1.72310813635e-05 1.9803746219e-05 0.800335646953)
(2.25442857813e-05 2.23570136705e-05 0.800342591633)
(2.54859399902e-05 2.58251975043e-05 0.800343063679)
(2.95785003271e-05 3.01639280643e-05 0.800342421351)
(3.06900982345e-05 3.45605983408e-05 0.80034096123)
(3.2508715075e-05 4.10034893739e-05 0.800339936943)
(3.07844174009e-05 4.48600415522e-05 0.800338061782)
(2.88156912476e-05 5.36367835105e-05 0.800337173091)
(2.33846503131e-05 5.43719388575e-05 0.800335157624)
(1.63655131216e-05 6.46015870969e-05 0.800334782852)
(7.34007239492e-06 6.00293597286e-05 0.800333165231)
(-3.46805778188e-06 6.8692816203e-05 0.800333601457)
(3.12036553576e-06 2.00059784379e-05 0.797380718469)
(8.18725986097e-06 2.11622452606e-05 0.800106976306)
(1.4113494275e-05 2.19906161054e-05 0.800302643616)
(1.89841293118e-05 2.50437829485e-05 0.800336400955)
(2.40023443705e-05 2.80075284821e-05 0.800343297962)
(2.83581999588e-05 3.46655213133e-05 0.800343896149)
(3.11739274228e-05 3.92162410239e-05 0.800342871637)
(3.46383994688e-05 4.99103385248e-05 0.800341785849)
(3.34630919826e-05 5.5526597633e-05 0.800339934808)
(3.53000063941e-05 7.06179483924e-05 0.800339129649)
(2.84435713801e-05 7.59613714384e-05 0.800336635014)
(2.69782871332e-05 9.37540600663e-05 0.800336971322)
(1.5408665823e-05 9.60634729562e-05 0.800333970824)
(8.24522440153e-06 0.000110472813473 0.800335968033)
(-1.84680562859e-06 0.000106369706613 0.800333083755)
(4.41921518069e-06 2.03826293568e-05 0.797379922541)
(1.01299029475e-05 2.19757166068e-05 0.800106119306)
(1.86086724605e-05 2.34220154258e-05 0.800301916615)
(2.38851091261e-05 2.61846842762e-05 0.800335467746)
(3.23606598557e-05 3.00241996257e-05 0.800342333271)
(3.66958597501e-05 3.55291589769e-05 0.800342190494)
(4.47657883263e-05 4.25576406909e-05 0.800341227402)
(4.69251631959e-05 4.97189098155e-05 0.80033847778)
(5.31323152866e-05 6.14688656552e-05 0.800337113108)
(5.11347094186e-05 6.72922435713e-05 0.800332914009)
(5.1873558975e-05 8.60702764835e-05 0.800331975745)
(4.34125379036e-05 8.37369809887e-05 0.80032638322)
(3.29853353163e-05 0.000109735563507 0.800326826217)
(1.74164665223e-05 9.20544606207e-05 0.800321027135)
(-5.40272641909e-06 0.00011784671596 0.800323357891)
(4.15561732433e-06 2.27009825217e-05 0.797379227959)
(1.09986646986e-05 2.44470967866e-05 0.800105408862)
(1.92750482696e-05 2.55730770565e-05 0.80030110488)
(2.62587635185e-05 2.99320474084e-05 0.800334734731)
(3.35980292619e-05 3.37670714085e-05 0.800341282541)
(4.09463705711e-05 4.38895797661e-05 0.800341465756)
(4.53628558263e-05 4.9924034293e-05 0.800339624391)
(5.35356804581e-05 6.81079208593e-05 0.800338070536)
(5.10205725634e-05 7.56593157918e-05 0.800334489894)
(5.98955739785e-05 0.00010555900234 0.800333898841)
(4.49172539849e-05 0.000112223052495 0.800327828834)
(5.0690483933e-05 0.000154738926516 0.800331072605)
(2.36383023588e-05 0.000154909034206 0.800321825188)
(1.54754601044e-05 0.000196734542348 0.80033144257)
(4.36597443456e-07 0.000187180665504 0.800321200568)
(6.17348253618e-06 2.17976650367e-05 0.797378273555)
(1.35584522207e-05 2.37039496728e-05 0.800104312023)
(2.59397215528e-05 2.53341510546e-05 0.800300043649)
(3.29547774913e-05 2.90866521667e-05 0.800333148363)
(4.66441089191e-05 3.40334092773e-05 0.800339734511)
(5.29304517748e-05 4.18902293495e-05 0.800338340592)
(6.89976974034e-05 5.18737409692e-05 0.800337019627)
(7.26618977198e-05 6.27102637835e-05 0.800331340077)
(9.05931395475e-05 8.24821635518e-05 0.800329878795)
(8.77590361653e-05 9.05893245952e-05 0.800319194926)
(0.000101315344037 0.00013043987261 0.800319424901)
(8.65997747015e-05 0.000117026198845 0.800301289341)
(7.55110863924e-05 0.00018681257695 0.800306415237)
(4.64694410157e-05 0.000119731768726 0.800281837887)
(-1.59949925334e-05 0.000198707565352 0.800291149409)
(5.55113475637e-06 2.11965260659e-05 0.797377609754)
(1.45538188087e-05 2.33931380556e-05 0.800103639675)
(2.60789604002e-05 2.46831579639e-05 0.800299174339)
(3.58392474674e-05 3.00061444759e-05 0.800332451397)
(4.67366776064e-05 3.41380309415e-05 0.800338462019)
(5.88714285488e-05 4.7593712212e-05 0.8003378942)
(6.62011378892e-05 5.41255163081e-05 0.800334711643)
(8.41553498848e-05 8.21583528078e-05 0.80033222189)
(7.89569632179e-05 8.96952891917e-05 0.800325023667)
(0.000108092133759 0.000146313205805 0.80032508336)
(7.2316778856e-05 0.000148930314106 0.800308691295)
(0.000109878224403 0.00025408979803 0.800321917585)
(3.08790515757e-05 0.000238442762793 0.800287966304)
(2.18405805925e-05 0.000378449895981 0.800344694768)
(2.8745522806e-06 0.000363204114265 0.800290122261)
(8.20707416301e-06 1.91419442049e-05 0.7973766458)
(1.72786849736e-05 2.10736986154e-05 0.800102476659)
(3.45532520158e-05 2.24747326455e-05 0.800298121091)
(4.33759765683e-05 2.69977872533e-05 0.800330541263)
(6.46074896601e-05 3.20442560441e-05 0.800336873116)
(7.30101827515e-05 4.24040298806e-05 0.800333341177)
(0.000103585352912 5.36789137532e-05 0.800331972752)
(0.000108259763112 7.01168081982e-05 0.800320127572)
(0.000154898231221 9.77242778013e-05 0.800320062464)
(0.000147637166286 0.000111561358275 0.800291622902)
(0.000211861701228 0.000189020507942 0.800298635185)
(0.00018579623198 0.000153625343774 0.80023622535)
(0.000219260603385 0.000353429500741 0.800268865836)
(0.000355870029486 0.000111490568583 0.800082815932)
(-7.1218739892e-05 0.000348740323853 0.800151840391)
(7.22407170609e-06 1.48813007031e-05 0.797376150278)
(1.82561018555e-05 1.70264550271e-05 0.800101998329)
(3.38201369057e-05 1.82449487504e-05 0.800297382234)
(4.63596883301e-05 2.31342027313e-05 0.800330125668)
(6.25033498796e-05 2.65970374568e-05 0.800335580664)
(8.05974178889e-05 4.02886650863e-05 0.800333664511)
(9.39474432314e-05 4.56535229289e-05 0.800328856939)
(0.000128268430417 7.97850761713e-05 0.800323938611)
(0.000120779970211 8.28686603175e-05 0.800310534599)
(0.00020039606803 0.000171380291106 0.800309726772)
(0.000117328225129 0.000146385784671 0.80026857254)
(0.000271818455776 0.000379957242218 0.800342910269)
(6.35255766912e-05 0.000119415158122 0.80013427084)
(-0.000220830859855 0.000863555924889 0.800608470812)
(-4.97089117986e-05 0.00115541036763 0.800327550517)
(9.91458514802e-06 1.20664606411e-05 0.797375392061)
(2.03257934974e-05 1.35435868514e-05 0.800101021966)
(4.22168113163e-05 1.40994147516e-05 0.800296599539)
(5.25331502582e-05 1.86155616771e-05 0.800328260504)
(8.20947190181e-05 2.14811671269e-05 0.800334483795)
(9.21594364019e-05 3.37505675894e-05 0.800328153086)
(0.000143151496317 3.97869539119e-05 0.800327487215)
(0.000145603256691 6.58287217107e-05 0.800305094495)
(0.000246797630551 8.29057607393e-05 0.800310082932)
(0.000211970006608 0.000119641659107 0.800238508195)
(0.000414788290288 0.000224630021075 0.800289631888)
(0.000268731653365 0.000143083065922 0.799970808098)
(0.000536549436855 0.00107753675941 0.800478269809)
(0.000178937693347 4.87248745826e-05 0.800249725691)
(2.85923471837e-05 0.000145535851384 0.800193439335)
(8.9083905341e-06 4.43556433985e-06 0.797375184016)
(2.09144763605e-05 5.6292345873e-06 0.800100844811)
(4.07512565453e-05 6.54554512777e-06 0.800296193531)
(5.44790281998e-05 8.34098905436e-06 0.800328232896)
(7.79321427472e-05 1.04024548348e-05 0.800333539852)
(9.90298702018e-05 1.60398929925e-05 0.800329215081)
(0.000126332212779 2.09520046596e-05 0.800323973938)
(0.000172348266439 3.96374550917e-05 0.80031117123)
(0.000175524124199 4.70198275663e-05 0.800291474556)
(0.000319639068491 0.000124332502907 0.80026657585)
(6.91493863082e-05 9.46974610116e-05 0.800151981845)
(0.00110703592346 0.000574691579851 0.800557387575)
(7.72500233145e-05 0.000152594248739 0.800207715733)
(0 0 0)
(0 0 0)
(1.0354650994e-05 1.42126819932e-06 0.79737485064)
(2.15524387583e-05 1.79488766065e-06 0.800100396823)
(4.51396022653e-05 1.14619356617e-06 0.800295910923)
(5.66973150729e-05 3.80577945821e-06 0.800327251129)
(8.99593944984e-05 2.27408466987e-06 0.800333299573)
(0.000102888989857 1.28788545986e-05 0.80032552422)
(0.000167582781331 4.53838584481e-06 0.800324835376)
(0.000175556003106 4.64893356975e-05 0.80029437409)
(0.000341140856585 3.33879841356e-06 0.800300946329)
(0.000294087569378 0.000205019163849 0.800177329329)
(0.000889418918473 -0.000350260833395 0.800368807684)
(0.000222126366574 -3.9402492872e-05 0.80024835263)
(0 0 0)
(0 0 -0)
(-0 -0 0)
(1.99612238465e-06 1.52117815531e-06 0.793887633107)
(4.49696790707e-06 1.60167119876e-06 0.797269000926)
(8.42510710949e-06 1.78886422049e-06 0.797372627921)
(1.05114674947e-05 1.86396289192e-06 0.797375618908)
(1.39329670719e-05 2.15473386394e-06 0.797375144573)
(1.51196174162e-05 2.31834301422e-06 0.797373976502)
(1.73164757945e-05 2.78431948683e-06 0.797373123682)
(1.71581076731e-05 2.95926938034e-06 0.797371685889)
(1.75705684944e-05 3.60850115917e-06 0.797370713671)
(1.57566657733e-05 3.6962352251e-06 0.797369269234)
(1.40400676514e-05 4.49163155223e-06 0.797368340037)
(1.0559854837e-05 4.38026462445e-06 0.797367204653)
(6.83652476259e-06 5.20407769611e-06 0.797366548033)
(2.19310721051e-06 4.81353249685e-06 0.797366005156)
(-2.72681441129e-06 5.48220256335e-06 0.797365874459)
(1.96758173702e-06 5.94759978337e-06 0.797269094395)
(4.79576873648e-06 6.04029265188e-06 0.799948764339)
(8.56645346477e-06 6.36471410073e-06 0.800083604991)
(1.11348073935e-05 7.01133610633e-06 0.800098739116)
(1.43225818603e-05 7.78732739266e-06 0.800100033637)
(1.60341588795e-05 9.21285716052e-06 0.800099219844)
(1.7935751458e-05 1.03055189493e-05 0.800098209857)
(1.82724035034e-05 1.23937122422e-05 0.800096943354)
(1.8336378074e-05 1.36157307904e-05 0.800095704766)
(1.69018516712e-05 1.6184782691e-05 0.800094518932)
(1.4793574041e-05 1.72054350296e-05 0.800093241839)
(1.14588827566e-05 1.98091037007e-05 0.800092469578)
(7.34495754224e-06 2.0146532134e-05 0.800091393971)
(2.53557947292e-06 2.2079452249e-05 0.800091287254)
(-2.67640146117e-06 2.12799376129e-05 0.800090708088)
(2.03954877091e-06 8.77790444761e-06 0.797372491163)
(5.08254463657e-06 9.17018048312e-06 0.800083444672)
(9.02535291714e-06 9.77972355856e-06 0.800261103725)
(1.19855427649e-05 1.06467892963e-05 0.800288603238)
(1.53199058278e-05 1.19953882042e-05 0.800293536681)
(1.73686674686e-05 1.37868371834e-05 0.800293387075)
(1.94075257146e-05 1.59073687037e-05 0.800292415648)
(1.99564605825e-05 1.83609415687e-05 0.80029089727)
(2.01159634676e-05 2.11040069712e-05 0.800289588864)
(1.86766840462e-05 2.38400063745e-05 0.800287951781)
(1.6501465665e-05 2.68294586924e-05 0.800286708005)
(1.28714068934e-05 2.91418405731e-05 0.800285328748)
(8.4032688464e-06 3.15965164266e-05 0.800284475418)
(3.0414334988e-06 3.25493861875e-05 0.800283763808)
(-2.75648698604e-06 3.34812607561e-05 0.800283638266)
(2.16472055718e-06 1.30842408954e-05 0.797375807049)
(5.61139544376e-06 1.34884313906e-05 0.80009877773)
(9.76840995854e-06 1.40089524999e-05 0.800288761081)
(1.3113195251e-05 1.55053452517e-05 0.800320458454)
(1.66428851916e-05 1.73711682073e-05 0.800326631595)
(1.91314513808e-05 2.05268850637e-05 0.800326887803)
(2.12840318936e-05 2.33572965536e-05 0.800325719157)
(2.23002996839e-05 2.79210840058e-05 0.800324413204)
(2.23815325375e-05 3.13685015413e-05 0.800322598274)
(2.12946939202e-05 3.69442036459e-05 0.800321459133)
(1.87296801795e-05 4.03099586397e-05 0.800319349752)
(1.50845477235e-05 4.58276220364e-05 0.80031892679)
(9.87655991115e-06 4.78695246738e-05 0.800316822101)
(3.93743467051e-06 5.15694362264e-05 0.800317471094)
(-2.76426709573e-06 5.08914326446e-05 0.80031591252)
(2.62305600918e-06 1.53088991543e-05 0.797374831727)
(6.57758934361e-06 1.60883373391e-05 0.800099687077)
(1.16316873411e-05 1.69616438196e-05 0.800293433985)
(1.53977353983e-05 1.86679851708e-05 0.80032624654)
(1.99233220821e-05 2.11745296469e-05 0.80033274047)
(2.27623239123e-05 2.47055126154e-05 0.800332509049)
(2.60066226264e-05 2.87841531139e-05 0.800331248521)
(2.71317598817e-05 3.37687599597e-05 0.800328856522)
(2.81803946511e-05 3.92497237705e-05 0.800327049269)
(2.66938617651e-05 4.51079597554e-05 0.800324160322)
(2.44580261712e-05 5.13433112632e-05 0.800322391101)
(1.96573411075e-05 5.6691221475e-05 0.800319596897)
(1.35512930445e-05 6.19828810145e-05 0.800318417647)
(5.74217850026e-06 6.4569042203e-05 0.800316645407)
(-2.99552071591e-06 6.65087497456e-05 0.800316776785)
(2.80864232929e-06 1.86645984325e-05 0.797374238564)
(7.5172212552e-06 1.94568717096e-05 0.800099220981)
(1.30759857683e-05 2.02664098983e-05 0.800293583072)
(1.76964216517e-05 2.26712938815e-05 0.800326781018)
(2.26775918373e-05 2.56949808515e-05 0.800333092736)
(2.65667628064e-05 3.08783775623e-05 0.800333098962)
(3.00892740132e-05 3.57057757824e-05 0.800331135614)
(3.24748477535e-05 4.3526933153e-05 0.800329429756)
(3.33996423232e-05 4.98299471825e-05 0.800326126272)
(3.30663055699e-05 5.993085702e-05 0.800324984703)
(3.00028978735e-05 6.67131800797e-05 0.800320401399)
(2.54538238183e-05 7.72546528551e-05 0.800321126347)
(1.75860771733e-05 8.21401630498e-05 0.800315570193)
(8.33694297979e-06 8.92427641102e-05 0.8003190319)
(-3.01576231431e-06 8.89607593323e-05 0.800313947351)
(3.6276261279e-06 1.98417232563e-05 0.79737261531)
(9.08144057348e-06 2.09325184008e-05 0.800097594982)
(1.62218952999e-05 2.21018515435e-05 0.800292184731)
(2.14805074739e-05 2.46829164075e-05 0.800324939297)
(2.83266099949e-05 2.84577810087e-05 0.800331148126)
(3.27765796433e-05 3.39834137471e-05 0.800329844744)
(3.85993267209e-05 4.04751763764e-05 0.80032790069)
(4.11826508104e-05 4.87808630885e-05 0.800323537875)
(4.45025641752e-05 5.82310193567e-05 0.800320796332)
(4.34985820427e-05 6.89924025654e-05 0.800314801509)
(4.17205320314e-05 8.07973161088e-05 0.800312025633)
(3.49924855244e-05 9.21129161732e-05 0.800305130493)
(2.54967243811e-05 0.00010301927114 0.800303468404)
(1.24518194415e-05 0.000110206942722 0.800298285384)
(-3.34522752046e-06 0.000114440958139 0.800299078857)
(3.82258009169e-06 2.14905735962e-05 0.7973719648)
(1.03909521411e-05 2.26380035603e-05 0.80009678839)
(1.81585302639e-05 2.37661491579e-05 0.800291087786)
(2.48091681539e-05 2.70723879828e-05 0.800324001349)
(3.22447734075e-05 3.12786797764e-05 0.800329644333)