/*--------------------------------*- C++ -*----------------------------------*\
| =========                 |                                                 |
| \\      /  F ield         | OpenFOAM: The Open Source CFD Toolbox           |
|  \\    /   O peration     | Version:  2406                                  |
|   \\  /    A nd           | Website:  www.openfoam.com                      |
|    \\/     M anipulation  |                                                 |
\*---------------------------------------------------------------------------*/
FoamFile
{
    version     2.0;
    format      ascii;
    arch        "LSB;label=32;scalar=64";
    class       volScalarField;
    location    "0";
    object      k;
}
// * * * * * * * * * * * * * * * * * * * * * * * * * * * * * * * * * * * * * //

dimensions      [0 2 -2 0 0 0 0];

internalField   uniform 1.5;

boundaryField
{
    wall
    {
        type            kqRWallFunction;
        value           uniform 1.5;
    }
    inlet
    {
        type            fixedValue;
        value           nonuniform List<scalar> 0();
    }
    outlet
    {
        type            inletOutlet;
        inletValue      nonuniform List<scalar> 0();
        value           nonuniform List<scalar> 0();
    }
    oversetPatch
    {
        type            overset;
        value           uniform 1.5;
    }
    seed
    {
        type            zeroGradient;
    }
    procBoundary15to5
    {
        type            processor;
        value           uniform 1.5;
    }
    procBoundary15to6
    {
        type            processor;
        value           uniform 1.5;
    }
    procBoundary15to7
    {
        type            processor;
        value           uniform 1.5;
    }
    procBoundary15to9
    {
        type            processor;
        value           uniform 1.5;
    }
    procBoundary15to13
    {
        type            processor;
        value           uniform 1.5;
    }
    procBoundary15to14
    {
        type            processor;
        value           uniform 1.5;
    }
    procBoundary15to21
    {
        type            processor;
        value           uniform 1.5;
    }
    procBoundary15to22
    {
        type            processor;
        value           uniform 1.5;
    }
    procBoundary15to23
    {
        type            processor;
        value           uniform 1.5;
    }
    procBoundary15to27
    {
        type            processor;
        value           uniform 1.5;
    }
    procBoundary15to29
    {
        type            processor;
        value           uniform 1.5;
    }
}


// ************************************************************************* //
