/*--------------------------------*- C++ -*----------------------------------*\
| =========                 |                                                 |
| \\      /  F ield         | OpenFOAM: The Open Source CFD Toolbox           |
|  \\    /   O peration     | Version:  2406                                  |
|   \\  /    A nd           | Website:  www.openfoam.com                      |
|    \\/     M anipulation  |                                                 |
\*---------------------------------------------------------------------------*/
FoamFile
{
    version     2.0;
    format      ascii;
    arch        "LSB;label=32;scalar=64";
    class       pointScalarField;
    location    "0";
    object      motionScale;
}
// * * * * * * * * * * * * * * * * * * * * * * * * * * * * * * * * * * * * * //

dimensions      [0 0 0 0 0 0 0];

internalField   nonuniform List<scalar> 
31909
(
0
0
0
0
0
0
0
0
0
0
0
0
0
0
0
0
0
0
0
0
0
0
0
0
0
0
0
0
0
0
0
0
0
0
0
0
0
0
0
0
0
0
0
0
0
0
0
0
0
0
0
0
0
0
0
0
0
0
0
0
0
0
0
0
0
0
0
0
0
0
0
0
0
0
0
0
0
0
0
0
0
0
0
0
0
0
0
0
0
0
0
0
0
0
0
0
0
0
0
0
0
0
0
0
0
0
0
0
0
0
0
0
0
0
0
0
0
0
0
0
0
0
0
0
0
0
0
0
0
0
0
0
0
0
0
0
0
0
0
0
0
0
0
0
0
0
0
0
0
0
0
0
0
0
0
0
0
0
0
0
0
0
0
0
0
0
0
0
0
0
0
0
0
0
0
0
0
0
0
0
0
0
0
0
0
0
0
0
0
0
0
0
0
0
0
0
0
0
0
0
0
0
0
0
0
0
0
0
0
0
0
0
0
0
0
0
0
0
0
0
0
0
0
0
0
0
0
0
0
0
0
0
0
0
0
0
0
0
0
0
0
0
0
0
0
0
0
0
0
0
0
0
0
0
0
0
0
0
0
0
0
0
0
0
0
0
0
0
0
0
0
0
0
0
0
0
0
0
0
0
0
0
0
0
0
0
0
0
0
0
0
0
0
0
0
0
0
0
0
0
0
0
0
0
0
0
0
0
0
0
0
0
0
0
0
0
0
0
0
0
0
0
0
0
0
0
0
0
0
0
0
0
0
0
0
0
0
0
0
0
0
0
0
0
0
0
0
0
0
0
0
0
0
0
0
0
0
0
0
0
0
0
0
0
0
0
0
0
0
0
0
0
0
0
0
0
0
0
0
0
0
0
0
0
0
0
0
0
0
0
0
0
0
0
0
0
0
0
0
0
0
0
0
0
0
0
0
0
0
0
0
0
0
0
0
0
0
0
0
0
0
0
0
0
0
0
0
0
0
0
0
0
0
0
0
0
0
0
0
0
0
0
0
0
0
0
0
0
0
0
0
0
0
0
0
0
0
0
0
0
0
0
0
0
0
0
0
0
0
0
0
0
0
0
0
0
0
0
0
0
0
0
0
0
0
0
0
0
0
0
0
0
0
0
0
0
0
0
0
0
0
0
0
0
0
0
0
0
0
0
0
0
0
0
0
0
0
0
0
0
0
0
0
0
0
0
0
0
0
0
0
0
0
0
0
0
0
0
0
0
0
0
0
0
0
0
0
0
0
0
0
0
0
0
0
0
0
0
0
0
0
0
0
0
0
0
0
0
0
0
0
0
0
0
0
0
0
0
0
0
0
0
0
0
0
0
0
0
0
0
0
0
0
0
0
0
0
0
0
0
0
0
0
0
0
0
0
0
0
0
0
0
0
0
0
0
0
0
0
0
0
0
0
0
0
0
0
0
0
0
0
0
0
0
0
0
0
0
0
0
0
0
0
0
0
0
0
0
0
0
0
0
0
0
0
0
0
0
0
0
0
0
0
0
0
0
0
0
0
0
0
0
0
0
0
0
0
0
0
0
0
0
0
0
0
0
0
0
0
0
0
0
0
0
0
0
0
0
0
0
0
0
0
0
0
0
0
0
0
0
0
0
0
0
0
0
0
0
0
0
0
0
0
0
0
0
0
0
0
0
0
0
0
0
0
0
0
0
0
0
0
0
0
0
0
0
0
0
0
0
0
0
0
0
0
0
0
0
0
0
0
0
0
0
0
0
0
0
0
0
0
0
0
0
0
0
0
0
0
0
0
0
0
0
0
0
0
0
0
0
0
0
0
0
0
0
0
0
0
0
0
0
0
0
0
0
0
0
0
0
0
0
0
0
0
0
0
0
0
0
0
0
0
0
0
0
0
0
0
0
0
0
0
0
0
0
0
0
0
0
0
0
0
0
0
0
0
0
0
0
0
0
0
0
0
0
0
0
0
0
0
0
0
0
0
0
0
0
0
0
0
0
0
0
0
0
0
0
0
0
0
0
0
0
0
0
0
0
0
0
0
0
0
0
0
0
0
0
0
0
0
0
0
0
0
0
0
0
0
0
0
0
0
0
0
0
0
0
0
0
0
0
0
0
0
0
0
0
0
0
0
0
0
0
0
0
0
0
0
0
0
0
0
0
0
0
0
0
0
0
0
0
0
0
0
0
0
0
0
0
0
0
0
0
0
0
0
0
0
0
0
0
0
0
0
0
0
0
0
0
0
0
0
0
0
0
0
0
0
0
0
0
0
0
0
0
0
0
0
0
0
0
0
0
0
0
0
0
0
0
0
0
0
0
0
0
0
0
0
0
0
0
0
0
0
0
0
0
0
0
0
0
0
0
0
0
0
0
0
0
0
0
0
0
0
0
0
0
0
0
0
0
0
0
0
0
0
0
0
0
0
0
0
0
0
0
0
0
0
0
0
0
0
0
0
0
0
0
0
0
0
0
0
0
0
0
0
0
0
0
0
0
0
0
0
0
0
0
0
0
0
0
0
0
0
0
0
0
0
0
0
0
0
0
0
0
0
0
0
0
0
0
0
0
0
0
0
0
0
0
0
0
0
0
0
0
0
0
0
0
0
0
0
0
0
0
0
0
0
0
0
0
0
0
0
0
0
0
0
0
0
0
0
0
0
0
0
0
0
0
0
0
0
0
0
0
0
0
0
0
0
0
0
0
0
0
0
0
0
0
0
0
0
0
0
0
0
0
0
0
0
0
0
0
0
0
0
0
0
0
0
0
0
0
0
0
0
0
0
0
0
0
0
0
0
0
0
0
0
0
0
0
0
0
0
0
0
0
0
0
0
0
0
0
0
0
0
0
0
0
0
0
0
0
0
0
0
0
0
0
0
0
0
0
0
0
0
0
0
0
0
0
0
0
0
0
0
0
0
0
0
0
0
0
0
0
0
0
0
0
0
0
0
0
0
0
0
0
0
0
0
0
0
0
0
0
0
0
0
0
0
0
0
0
0
0
0
0
0
0
0
0
0
0
0
0
0
0
0
0
0
0
0
0
0
0
0
0
0
0
0
0
0
0
0
0
0
0
0
0
0
0
0
0
0
0
0
0
0
0
0
0
0
0
0
0
0
0
0
0
0
0
0
0
0
0
0
0
0
0
0
0
0
0
0
0
0
0
0
0
0
0
0
0
0
0
0
0
0
0
0
0
0
0
0
0
0
0
0
0
0
0
0
0
0
0
0
0
0
0
0
0
0
0
0
0
0
0
0
0
0
0
0
0
0
0
0
0
0
0
0
0
0
0
0
0
0
0
0
0
0
0
0
0
0
0
0
0
0
0
0
0
0
0
0
0
0
0
0
0
0
0
0
0
0
0
0
0
0
0
0
0
0
0
0
0
0
0
0
0
0
0
0
0
0
0
0
0
0
0
0
0
0
0
0
0
0
0
0
0
0
0
0
0
0
0
0
0
0
0
0
0
0
0
0
0
0
0
0
0
0
0
0
0
0
0
0
0
0
0
0
0
0
0
0
0
0
0
0
0
0
0
0
0
0
0
0
0
0
0
0
0
0
0
0
0
0
0
0
0
0
0
0
0
0
0
0
0
0
0
0
0
0
0
0
0
0
0
0
0
0
0
0
0
0
0
0
0
0
0
0
0
0
0
0
0
0
0
0
0
0
0
0
0
0
0
0
0
0
0
0
0
0
0
0
0
0
0
0
0
0
0
0
0
0
0
0
0
0
0
0
0
0
0
0
0
0
0
0
0
0
0
0
0
0
0
0
0
0
0
0
0
0
0
0
0
0
0
0
0
0
0
0
0
0
0
0
0
0
0
0
0
0
0
0
0
0
0
0
0
0
0
0
0
0
0
0
0
0
0
0
0
0
0
0
0
0
0
0
0
0
0
0
0
0
0
0
0
0
0
0
0
0
0
0
0
0
0
0
0
0
0
0
0
0
0
0
0
0
0
0
0
0
0
0
0
0
0
0
0
0
0
0
0
0
0
0
0
0
0
0
0
0
0
0
0
0
0
0
0
0
0
0
0
0
0
0
0
0
0
0
0
0
0
0
0
0
0
0
0
0
0
0
0
0
0
0
0
0
0
0
0
0
0
0
0
0
0
0
0
0
0
0
0
0
0
0
0
0
0
0
0
0
0
0
0
0
0
0
0
0
0
0
0
0
0
0
0
0
0
0
0
0
0
0
0
0
0
0
0
0
0
0
0
0
0
0
0
0
0
0
0
0
0
0
0
0
0
0
0
0
0
0
0
0
0
0
0
0
0
0
0
0
0
0
0
0
0
0
0
0
0
0
0
0
0
0
0
0
0
0
0
0
0
0
0
0
0
0
0
0
0
0
0
0
0
0
0
0
0
0
0
0
0
0
0
0
0
0
0
0
0
0
0
0
0
0
0
0
0
0
0
0
0
0
0
0
0
0
0
0
0
0
0
0
0
0
0
0
0
0
0
0
0
0
0
0
0
0
0
0
0
0
0
0
0
0
0
0
0
0
0
0
0
0
0
0
0
0
0
0
0
0
0
0
0
0
0
0
0
0
0
0
0
0
0
0
0
0
0
0
0
0
0
0
0
0
0
0
0
0
0
0
0
0
0
0
0
0
0
0
0
0
0
0
0
0
0
0
0
0
0
0
0
0
0
0
0
0
0
0
0
0
0
0
0
0
0
0
0
0
0
0
0
0
0
0
0
0
0
0
0
0
0
0
0
0
0
0
0
0
0
0
0
0
0
0
0
0
0
0
0
0
0
0
0
0
0
0
0
0
0
0
0
0
0
0
0
0
0
0
0
0
0
0
0
0
0
0
0
0
0
0
0
0
0
0
0
0
0
0
0
0
0
0
0
0
0
0
0
0
0
0
0
0
0
0
0
0
0
0
0
0
0
0
0
0
0
0
0
0
0
0
0
0
0
0
0
0
0
0
0
0
0
0
0
0
0
0
0
0
0
0
0
0
0
0
0
0
0
0
0
0
0
0
0
0
0
0
0
0
0
0
0
0
0
0
0
0
0
0
0
0
0
0
0
0
0
0
0
0
0
0
0
0
0
0
0
0
0
0
0
0
0
0
0
0
0
0
0
0
0
0
0
0
0
0
0
0
0
0
0
0
0
0
0
0
0
0
0
0
0
0
0
0
0
0
0
0
0
0
0
0
0
0
0
0
0
0
0
0
0
0
0
0
0
0
0
0
0
0
0
0
0
0
0
0
0
0
0
0
0
0
0
0
0
0
0
0
0
0
0
0
0
0
0
0
0
0
0
0
0
0
0
0
0
0
0
0
0
0
0
0
0
0
0
0
0
0
0
0
0
0
0
0
0
0
0
0
0
0
0
0
0
0
0
0
0
0
0
0
0
0
0
0
0
0
0
0
0
0
0
0
0
0
0
0
0
0
0
0
0
0
0
0
0
0
0
0
0
0
0
0
0
0
0
0
0
0
0
0
0
0
0
0
0
0
0
0
0
0
0
0
0
0
0
0
0
0
0
0
0
0
0
0
0
0
0
0
0
0
0
0
0
0
0
0
0
0
0
0
0
0
0
0
0
0
0
0
0
0
0
0
0
0
0
0
0
0
0
0
0
0
0
0
0
0
0
0
0
0
0
0
0
0
0
0
0
0
0
0
0
0
0
0
0
0
0
0
0
0
0
0
0
0
0
0
0
0
0
0
0
0
0
0
0
0
0
0
0
0
0
0
0
0
0
0
0
0
0
0
0
0
0
0
0
0
0
0
0
0
0
0
0
0
0
0
0
0
0
0
0
0
0
0
0
0
0
0
0
0
0
0
0
0
0
0
0
0
0
0
0
0
0
0
0
0
0
0
0
0
0
0
0
0
0
0
0
0
0
0
0
0
0
0
0
0
0
0
0
0
0
0
0
0
0
0
0
0
0
0
0
0
0
0
0
0
0
0
0
0
0
0
0
0
0
0
0
0
0
0
0
0
0
0
0
0
0
0
0
0
0
0
0
0
0
0
0
0
0
0
0
0
0
0
0
0
0
0
0
0
0
0
0
0
0
0
0
0
0
0
0
0
0
0
0
0
0
0
0
0
0
0
0
0
0
0
0
0
0
0
0
0
0
0
0
0
0
0
0
0
0
0
0
0
0
0
0
0
0
0
0
0
0
0
0
0
0
0
0
0
0
0
0
0
0
0
0
0
0
0
0
0
0
0
0
0
0
0
0
0
0
0
0
0
0
0
0
0
0
0
0
0
0
0
0
0
0
0
0
0
0
0
0
0
0
0
0
0
0
0
0
0
0
0
0
0
0
0
0
0
0
0
0
0
0
0
0
0
0
0
0
0
0
0
0
0
0
0
0
0
0
0
0
0
0
0
0
0
0
0
0
0
0
0
0
0
0
0
0
0
0
0
0
0
0
0
0
0
0
0
0
0
0
0
0
0
0
0
0
0
0
0
0
0
0
0
0
0
0
0
0
0
0
0
0
0
0
0
0
0
0
0
0
0
0
0
0
0
0
0
0
0
0
0
0
0
0
0
0
0
0
0
0
0
0
0
0
0
0
0
0
0
0
0
0
0
0
0
0
0
0
0
0
0
0
0
0
0
0
0
0
0
0
0
0
0
0
0
0
0
0
0
0
0
0
0
0
0
0
0
0
0
0
0
0
0
0
0
0
0
0
0
0
0
0
0
0
0
0
0
0
0
0
0
0
0
0
0
0
0
0
0
0
0
0
0
0
0
0
0
0
0
0
0
0
0
0
0
0
0
0
0
0
0
0
0
0
0
0
0
0
0
0
0
0
0
0
0
0
0
0
0
0
0
0
0
0
0
0
0
0
0
0
0
0
0
0
0
0
0
0
0
0
0
0
0
0
0
0
0
0
0
0
0
0
0
0
0
0
0
0
0
0
0
0
0
0
0
0
0
0
0
0
0
0
0
0
0
0
0
0
0
0
0
0
0
0
0
0
0
0
0
0
0
0
0
0
0
0
0
0
0
0
0
0
0
0
0
0
0
0
0
0
0
0
0
0
0
0
0
0
0
0
0
0
0
0
0
0
0
0
0
0
0
0
0
0
0
0
0
0
0
0
0
0
0
0
0
0
0
0
0
0
0
0
0
0
0
0
0
0
0
0
0
0
0
0
0
0
0
0
0
0
0
0
0
0
0
0
0
0
0
0
0
0
0
0
0
0
0
0
0
0
0
0
0
0
0
0
0
0
0
0
0
0
0
0
0
0
0
0
0
0
0
0
0
0
0
0
0
0
0
0
0
0
0
0
0
0
0
0
0
0
0
0
0
0
0
0
0
0
0
0
0
0
0
0
0
0
0
0
0
0
0
0
0
0
0
0
0
0
0
0
0
0
0
0
0
0
0
0
0
0
0
0
0
0
0
0
0
0
0
0
0
0
0
0
0
0
0
0
0
0
0
0
0
0
0
0
0
0
0
0
0
0
0
0
0
0
0
0
0
0
0
0
0
0
0
0
0
0
0
0
0
0
0
0
0
0
0
0
0
0
0
0
0
0
0
0
0
0
0
0
0
0
0
0
0
0
0
0
0
0
0
0
0
0
0
0
0
0
0
0
0
0
0
0
0
0
0
0
0
0
0
0
0
0
0
0
0
0
0
0
0
0
0
0
0
0
0
0
0
0
0
0
0
0
0
0
0
0
0
0
0
0
0
0
0
0
0
0
0
0
0
0
0
0
0
0
0
0
0
0
0
0
0
0
0
0
0
0
0
0
0
0
0
0
0
0
0
0
0
0
0
0
0
0
0
0
0
0
0
0
0
0
0
0
0
0
0
0
0
0
0
0
0
0
0
0
0
0
0
0
0
0
0
0
0
0
0
0
0
0
0
0
0
0
0
0
0
0
0
0
0
0
0
0
0
0
0
0
0
0
0
0
0
0
0
0
0
0
0
0
0
0
0
0
0
0
0
0
0
0
0
0
0
0
0
0
0
0
0
0
0
0
0
0
0
0
0
0
0
0
0
0
0
0
0
0
0
0
0
0
0
0
0
0
0
0
0
0
0
0
0
0
0
0
0
0
0
0
0
0
0
0
0
0
0
0
0
0
0
0
0.99999814724
0.999995367495
1
1
1
1
1
1
1
1
1
1
1
1
1
1
1
1
1
1
0.999424880209
0.999261802319
0.999090125246
0.998904277998
0.998694010861
0.998464133366
0.998223087458
0.997954102683
0.997665342132
0.997322755055
0.996993477902
0.996644393068
0.99627548692
0.999467323677
0.999307611174
0.999142556611
0.998953400449
0.99874453623
0.998522735324
0.99827457825
0.99800657941
0.997688649294
0.997379997704
0.997051485944
0.996703100548
0.996334835874
0.99949066591
0.999341939723
0.999178264168
0.998990360065
0.998782602782
0.998560421421
0.998313112303
0.998019696895
0.997731630113
0.997423634824
0.997095721275
0.996747880732
0.996380115169
0.999516646972
0.999369464225
0.999202380351
0.999015359188
0.998812263138
0.998585533188
0.998316422429
0.99804883399
0.997761278012
0.997453744707
0.99712625069
0.996778792406
0.996411376481
0.999528161165
0.999381619743
0.999215086106
0.999030934287
0.998824562358
0.998579473771
0.998332196965
0.998064926848
0.997777657071
0.997470382123
0.997143122527
0.996795877855
0.996428656978
0.999529420659
0.999382946829
0.999216474002
0.99901683604
0.998809631124
0.99858242792
0.998335226042
0.998068017566
0.997780803141
0.997473578247
0.99714636395
0.996799160501
0.996431977291
0.999654741454
0.999655916466
0.999557475663
0.999597580395
0.999627132463
0.999643983503
0.999616403246
0.999665731523
0.999708627625
0.999735963373
0.99975154799
0.9997614016
0.999762473002
0.999868338099
0.999803487267
0.999722017797
0.999903968441
0.999843896722
0.999766558419
0.999929851988
0.999874287856
0.9997968355
0.999822532659
0.999947459285
0.999893363342
0.99995701965
0.999907852118
0.999839447964
0.999962685499
0.999915244863
0.999848202558
0.999962236946
0.99991404307
0.999846046981
0.999989253928
0.999975913842
0.99995286055
0.999917645824
0.999947774741
0.999999361995
0.99999298825
0.999976757227
1
0.999999618726
0.999990846333
0.999968270134
1
1
0.999997578369
0.999981044862
1
1
0.999999748975
0.999988084951
1
1
0.999999999993
0.999990783556
1
1
1
0.999990790749
1
1
1
1
1
1
1
1
1
1
1
1
1
1
1
1
1
1
1
1
1
1
1
1
0.999337731628
0.999294662176
0.999238329862
0.999168266056
0.999083945743
0.999079190228
0.999006847392
0.998920056981
0.998818362292
0.998701305938
0.998738116961
0.998634014091
0.998514474367
0.998379097841
0.998227512332
0.998286657504
0.998147747523
0.997992583722
0.997820843162
0.997632222475
0.997764479106
0.997590495667
0.997399651882
0.997191686131
0.996976813204
0.997149123956
0.996939053997
0.996720689818
0.996477810165
0.996237723854
0.996446548871
0.996201715452
0.995961621775
0.995680395488
0.995381150316
0.995667488287
0.995384444238
0.995083428863
0.994764300917
0.994359249023
0.994767631835
0.994446827566
0.994107829473
0.993679961257
0.993306498431
0.993770606563
0.993336068128
0.992961118872
0.992567739387
0.992597542358
0.99220275059
0.999520330572
0.999503482846
0.999474643656
0.999433421199
0.999379321354
0.999634180086
0.999641275382
0.99963646848
0.999620590551
0.999593324902
0.999810272821
0.999732284667
0.999738946224
0.999734486621
1
1
1
1
1
1
1
0.999999549373
0.999999881186
0.999999715378
0.999998254072
0.999992710068
0.999982252334
0.999962088818
0.999930070838
0.999881813403
0.999820394836
0.999742495532
0.999647284843
0.999534145361
0.999402622287
0.999252378109
0.999083150798
0.998894751819
0.998687020495
0.998439312562
0.99819151868
0.997924135148
0.997637095485
0.99733036944
0.997029710891
0.996684516832
0.996319542957
0.999997862218
0.999998714067
0.999997960297
0.999995311373
0.999987688212
0.999973370883
0.999949117891
0.999912539021
0.999860791764
0.999796906816
0.99971683319
0.999619706632
0.999504888521
0.999371891499
0.999220347133
0.999049968749
0.998860544373
0.9986518951
0.998423899609
0.998176447585
0.997909459732
0.997622862515
0.997316619831
0.996990685555
0.996645027698
0.996279627631
0.999992379197
0.999994058538
0.999993213826
0.99998861878
0.99997874391
0.999961101289
0.999931627725
0.999892010337
0.999834782566
0.999769574304
0.999684313583
0.999581871675
0.999454528902
0.999328405582
0.999175125746
0.9990032085
0.998812399455
0.998602517108
0.998373406298
0.998124946595
0.997857037972
0.997569616232
0.997262614715
0.996935985854
0.996589690478
0.996223703784
0.999981008913
0.999982665349
0.999981575538
0.999975011818
0.999962247763
0.999941248198
0.99990987794
0.999866186395
0.999808539068
0.999731244975
0.999642435775
0.999539966961
0.999408198771
0.999268580399
0.999110703388
0.998934263179
0.998739001954
0.998524733075
0.998291295754
0.998038564327
0.997766433818
0.997474835657
0.997163699039
0.996832972793
0.996482614443
0.996112596562
1
1
1
1
0.999999944153
0.999995794448
0.999982313452
0.99995513096
0.999914467926
0.999857751484
0.999783908901
0.999692196389
0.999582087479
0.999453197544
0.999305255386
0.999138059184
0.998936159518
0.998728955215
0.998502158381
0.998255691811
0.997989505559
0.997703550508
0.997397810595
0.997094696523
0.996750292353
0.996386042861
1
1
1
1
0.999998624035
0.999990821246
0.999972929245
0.999942163227
0.999895279174
0.999835648154
0.999759306505
0.999665449065
0.999553484368
0.999422991674
0.999273647946
0.999105218166
0.998917524611
0.998710419869
0.998483808415
0.998237602525
0.997971740525
0.997686164617
0.997380851605
0.997055766361
0.996710886601
0.99634620093
0.999999940302
1
0.999999991815
0.999999050953
0.999994362591
0.999982502678
0.999960304613
0.999925232314
0.999872995958
0.999810157111
0.999728456802
0.999623631835
0.999506898352
0.999371745815
0.999217844281
0.999044945492
0.998869769852
0.998661364935
0.998433588297
0.9981863343
0.997919525394
0.997633090735
0.997326996201
0.997001195814
0.996613076099
0.996244416105
0.99999560353
0.99999687492
0.99999593281
0.999992107402
0.999983345536
0.999966969602
0.999940330607
0.999901162399
0.999844156142
0.999775239191
0.999689775348
0.999588280377
0.999461476941
0.999324160859
0.999168349212
0.998993750609
0.998800151766
0.998587370333
0.99835528108
0.998103771722
0.99783275892
0.997542166463
0.997231955917
0.996902077144
0.996552501395
0.996183202776
1
1
1
1
1
0.999999977052
0.999993203746
0.999973226793
0.999937773559
0.999885417058
0.999815232608
0.99972660838
0.99961912355
0.999492486343
0.999336181428
0.999169661405
0.998983534207
0.998777721716
0.998552152465
0.998306789015
0.998041593996
0.997756533983
0.997451605559
0.997145899134
0.996802134314
0.996438468959
1
1
1
1
1
0.999998667582
0.999987477533
0.999962504525
0.999921757393
0.99986457481
0.999791574411
0.999700579286
0.999591080656
0.999462722971
0.999315240469
0.999148441498
0.998962181589
0.998756358091
0.998530878908
0.998285693158
0.99802074953
0.997736004195
0.997431445253
0.99710704592
0.996762795851
0.99639868616
1
1
1
1
0.999999857699
0.999994312688
0.999978020338
0.999946546675
0.999901345351
0.999840744406
0.9997582279
0.999662302639
0.999548026717
0.999415012137
0.999262987631
0.999091748927
0.998901129805
0.998691018347
0.998461313872
0.99821195784
0.997942892246
0.997654067462
0.997345467063
0.997017060057
0.996668832901
0.996300773712
1
1
0.999999998175
0.999999252991
0.99999483474
0.999983268489
0.999961353519
0.999926539302
0.999874409383
0.999808921445
0.99972646277
0.999620320128
0.999503389668
0.999368062199
0.999214008502
0.999040972726
0.998848769355
0.998637239078
0.998406272401
0.998155778997
0.997885685271
0.997595928404
0.997286479977
0.996957298807
0.996608362738
0.996239652533
1
1
1
1
1
1
0.999998471214
1
1
1
1
1
1
0.999994883935
0.999975362415
0.999937370688
1
1
1
1
1
0.999999145319
0.999988417854
0.999962346048
0.999921102616
0.999859688059
0.999784313722
1
1
1
1
0.999999355693
0.999992358618
0.999974740938
0.999941974137
0.999895797317
0.999833193964
0.999753213708
0.999649523291
0.999534406356
1
1
1
1
1
1
1
1
1
1
1
0.999984145689
0.999953229467
0.99990453966
0.999837351928
0.999746347612
0.99964002433
0.999514231972
0.999368831388
0.999203713983
0.999018819687
0.998814082851
0.998589469743
0.998344959539
0.998080528125
0.997796163069
0.997491849485
0.997183401071
0.99684011242
0.996476882633
0.999883440745
0.999811264002
0.999720333571
0.999618193904
0.999491502061
0.999345454062
0.999179907269
0.998994745793
0.998789892406
0.998565274154
0.998320858772
0.998056606016
0.997772491333
0.997468489819
0.997144605353
0.99680082416
0.996437143895
0.999690703247
0.999578411775
0.999447111742
0.999296578423
0.999126639959
0.998937169148
0.998728076814
0.998499279864
0.998250738229
0.997982404818
0.997694242071
0.997386242725
0.997058384623
0.996710658084
0.996343058021
0.999400661958
0.999248001333
0.999076200329
0.998885084213
0.998674532104
0.998444432557
0.998194723267
0.997925337961
0.99763622378
0.997327360307
0.996998714607
0.996650267854
0.996282007208
1
1
1
1
1
0.999999888849
0.999989866921
0.999961478893
0.999914806535
0.999849043897
0.999763886865
0.999659140465
0.999534675789
0.999390401558
0.999226260574
0.999042206582
0.998838209884
0.998614256004
0.998370320593
0.998106408326
0.997822509894
0.997518617668
0.997207259915
0.99686427847
0.996501329295
1
1
1
1
1
0.999998416906
0.999981979626
0.99994888428
0.99989764807
0.999827662144
0.999738538573
0.999630019776
0.999501936489
0.999354168444
0.999199844657
0.999015403415
0.998811177459
0.998587121412
0.998343206082
0.998079401457
0.997795690443
0.997492054071
0.997168501293
0.996825022566
0.996461618928
1
1
1
1
1
0.999993312622
0.99997172946
0.999933464261
0.999874731739
0.999801322939
0.999709366501
0.999598475468
0.999468380223
0.999318881007
0.999149846049
0.998961167893
0.998752775627
0.99852460085
0.998276615327
0.998008781444
0.997721077062
0.997413478896
0.997085992592
0.996780515572
0.996417784401
1
1
1
1
0.999996602649
0.999982286898
0.999953054391
0.999909361142
0.999845472159
0.999770654236
0.99966875575
0.999554913399
0.999422281544
0.999270588472
0.999099635797
0.998909271833
0.99869938809
0.998469885551
0.998220712214
0.997951810183
0.997663133461
0.99735466756
0.997026384455
0.996678269516
0.996310313273
1
1
1
1
1
1
0.999992000809
0.999966318146
0.999921209724
0.999856679119
0.999772516887
0.999668588423
0.999544803881
0.999401108284
0.999237463378
0.999053839202
0.998850218154
0.998626595227
0.998382953489
0.99811930339
0.997835640281
0.997531960376
0.997217515286
0.996874666858
0.996511839149
1
1
1
1
1
0.999999406612
0.999986240209
0.999954948348
0.999904826071
0.999835458531
0.999746593227
0.999644700296
0.999518474338
0.999373300744
0.999208386879
0.999023661628
0.998819075881
0.998594602929
0.998350206314
0.998085881725
0.997801612777
0.99749738591
0.997173214541
0.996829092771
0.996465024758
1
1
1
1
1
0.999995588063
0.999976591597
0.999938991686
0.99988488945
0.999812320684
0.999720831835
0.999610120894
0.999479976756
0.999330254403
0.999160842846
0.998971678282
0.99876269173
0.998555010111
0.998311440672
0.998048100125
0.997764954395
0.997461970639
0.997139146225
0.996796461959
0.996433910784
1
1
1
1
0.999998062069
0.99998489311
0.999958279791
0.999917205887
0.999855251887
0.999778700835
0.999683883379
0.999570356587
0.999437807191
0.999286012453
0.999114803966
0.99892405653
0.998713682678
0.998483600222
0.998233770645
0.997964147238
0.997674700537
0.997365401245
0.997036250075
0.996687230185
0.996318336617
1
1
1
1
1
1
1
1
1
1
1
1
1
1
1
1
1
1
1
1
1
1
1
1
1
1
1
1
1
1
1
1
1
1
1
1
1
1
1
1
1
1
1
1
1
1
1
1
1
0.998984853894
0.998870472509
0.998740308143
0.998593915597
0.998430867316
0.998250800472
0.998053373565
0.99780951148
0.99757520547
0.997342855036
0.997074243683
0.996787146757
0.996481416953
0.996112569497
0.995771331058
0.995411175314
0.995032013778
0.998568460135
0.998419402408
0.99825375155
0.998054904207
0.997843295941
0.997624594941
0.997388081344
0.99713353201
0.996881678551
0.996592678162
0.996285147827
0.995958950611
0.995563662083
0.995201960876
0.994821338587
0.998033357436
0.99784706477
0.997654733255
0.997435809877
0.99719919905
0.996959592944
0.996686104667
0.996394312576
0.996039145715
0.995712431253
0.9953670555
0.995002910712
0.994619902492
0.997436258963
0.99721511491
0.996976355615
0.996736517644
0.996461041903
0.9961673475
0.995805472475
0.995477031474
0.995130010486
0.994764299848
0.994379802756
0.996735960184
0.996495961551
0.996218526298
0.995922949038
0.995554326324
0.995224165016
0.99487549839
0.994508215906
0.994122219286
0.995958369134
0.995660938841
0.995345283422
0.994953675872
0.994603372742
0.994234521654
0.993847023715
0.995063740477
0.994665416651
0.994313494302
0.99394308588
0.993554092657
0.994005731601
0.993633783996
0.993243308334
0.992914559029
0.999436969399
0.999443241961
0.999437968524
0.999420576388
0.999390846007
0.999348440822
0.999292911438
0.999223751665
0.999140413277
0.999042339268
0.998928998618
0.998799874199
0.998654505068
0.998492457401
0.998300358589
0.99810458762
0.997876214264
0.997642761298
0.997410303055
0.997142446466
0.99685606232
0.996551004177
0.99618317576
0.995842523498
0.995482920649
0.995104280493
0.999285843295
0.999285843104
0.99928679614
0.999268598738
0.999237548318
0.99919337364
0.999135705887
0.999064116908
0.998978150346
0.998877323911
0.998761161437
0.998629217732
0.998481057321
0.998293148252
0.998119755536
0.997921464826
0.997705626434
0.997484421468
0.997231894968
0.99692224147
0.996635054756
0.996329341514
0.996004965394
0.995661807533
0.995299764597
0.994918747033
0.999115367939
0.999115366409
0.999116256062
0.99909735367
0.999065147033
0.999019403391
0.998959826546
0.998886055824
0.998797699065
0.9986753499
0.998555444816
0.998419690306
0.998267705374
0.998099128409
0.997921907656
0.997721170017
0.997502973225
0.997281309577
0.997026618518
0.99675376484
0.996420954188
0.996113384261
0.995787246347
0.995442418557
0.995078794032
0.994696279395
0.998925408618
0.998925403548
0.998926215751
0.998906693558
0.998873460843
0.998826329875
0.998765044688
0.998689299479
0.998598769545
0.998493091694
0.998351197778
0.998212988988
0.998058534105
0.997887501753
0.997699580758
0.997503420903
0.997282933696
0.997060889909
0.996804066213
0.996529174177
0.99618955186
0.995880129594
0.99555222626
0.995205718307
0.994840496555
0.994456464848
0.998715854221
0.998722682423
0.998716582365
0.998696508128
0.998662364522
0.998613984964
0.998551165582
0.998473646911
0.998381137099
0.99827332942
0.998149902396
0.99798813947
0.997831360575
0.997657999111
0.997467780187
0.997267967316
0.997045267691
0.996822930296
0.996564023231
0.996287124468
0.995992063606
0.995629399461
0.995299738712
0.994951551564
0.994584727633
0.994199168977
0.998486633788
0.998493519589
0.998487268652
0.998466703484
0.998431744522
0.998382255448
0.998318054895
0.998238921576
0.99814460917
0.998034846405
0.997909350102
0.997744905278
0.997585948931
0.997410397218
0.997217987725
0.997014585482
0.996789756375
0.996567223076
0.996306286617
0.996027424519
0.995730470605
0.995361025809
0.995029625529
0.994679769843
0.994311348173
0.993924261713
0.998237693924
0.998244614823
0.998238228801
0.998217225267
0.998181534145
0.998131039127
0.998065588081
0.997984990321
0.997889029691
0.997777468806
0.997650055619
0.997483107291
0.997322109388
0.99714448725
0.996950000039
0.996738416054
0.996516207761
0.996293574992
0.99603067169
0.995749897458
0.995451091372
0.995074851173
0.994741737488
0.994390232171
0.994020225342
0.99363161816
0.997943224454
0.997949569566
0.997969414194
0.997948014623
0.997911663115
0.997860261218
0.99779367535
0.997711740221
0.99761426355
0.997501051083
0.997371876104
0.997202572794
0.997039663691
0.996860092456
0.996663636763
0.996450087381
0.996224445455
0.996001812796
0.995737010042
0.995454380673
0.995153769772
0.994835034987
0.994435934737
0.994082805606
0.993711233146
0.993321119215
0.997653858032
0.99766030868
0.997651613124
0.997627751033
0.997622086799
0.99756985125
0.997502232158
0.99741907802
0.997320224128
0.997205488353
0.997074675995
0.996903161488
0.996738463939
0.996557057862
0.996358744732
0.996143326767
0.995914313722
0.995691780608
0.995425148883
0.995140725465
0.994838361974
0.994517921108
0.994112086981
0.993757365541
0.993384252824
0.992992652018
0.997344685817
0.997351232307
0.997342407654
0.997318192568
0.997278542207
0.997259780051
0.997191217413
0.997106945179
0.99700681865
0.996890676939
0.996758347002
0.996609647567
0.996418381734
0.996235254215
0.996035185552
0.995817995105
0.995585674282
0.99536333876
0.995094950212
0.994808796515
0.994504736152
0.994182637315
0.993770073479
0.993413795826
0.993039173063
0.99264611024
0.997015699382
0.997022333224
0.997013390942
0.996988857125
0.996948689771
0.99689282187
0.996821163177
0.996775277005
0.996673978073
0.996556536662
0.996422798573
0.996272599682
0.996079312136
0.995894565361
0.995692840109
0.99547397014
0.995237793534
0.995016362576
0.994746289902
0.99445847122
0.994152772047
0.993829066357
0.993409782898
0.993051988746
0.992675890077
0.992281394238
0.996666880462
0.996673594181
0.99666454429
0.996639717304
0.996599076382
0.996542562683
0.996470096765
0.996381580716
0.996276900608
0.99615592918
0.996018526844
0.995916359877
0.995721161066
0.995534892725
0.995331604924
0.995111144757
0.994873362388
0.994650741168
0.994379056734
0.994089638958
0.99378236043
0.993457101067
0.993031113056
0.992671844893
0.992294307579
0.991898411115
0.996298218326
0.99630500531
0.996295856711
0.996270760679
0.996229684745
0.996172577009
0.996099367244
0.996009968656
0.995904279916
0.995782187397
0.995643565737
0.995488287386
0.995343849955
0.995156151688
0.994951390373
0.994729425409
0.994490118247
0.994266376263
0.993993151434
0.993702200314
0.993393402504
0.99306664392
0.992721817089
0.992273272941
0.991894336659
0.991497074672
0.999474045043
0.999479225899
0.999478906775
0.999461773602
0.999432472183
0.99939063024
0.999335784569
0.999267388346
0.999184875432
0.999087660442
0.998975192535
0.998846935927
0.99870241664
0.998528910215
0.998351312137
0.998156316397
0.997953646532
0.997696803252
0.997464111296
0.997196874576
0.996911074815
0.996606566371
0.996239625557
0.995899452137
0.995540300388
0.995162085145
0.999324619193
0.999330165185
0.999329736347
0.999311747019
0.999281042205
0.999237324838
0.999180214467
0.999109257677
0.999023979148
0.998923879334
0.998791137344
0.998658786305
0.998510187651
0.998344943725
0.998171423208
0.997973827857
0.997770440551
0.997536602624
0.997274548292
0.997005195241
0.996717400078
0.996411008899
0.996085888982
0.995692375706
0.995331620864
0.994951893656
0.999161487668
0.999166627533
0.999160939506
0.999142207071
0.999110278787
0.999064914703
0.999005794403
0.998932553588
0.998844775399
0.998742030475
0.998606000697
0.998470920056
0.998319603813
0.998151690089
0.997974264462
0.997774145831
0.997570133675
0.99733397203
0.997079821115
0.996796456753
0.996506662918
0.996198377586
0.995871464735
0.995525805312
0.995105723652
0.994724457547
0.998973106282
0.998978321863
0.998972429064
0.998953044318
0.998920042169
0.998873221574
0.998812320959
0.998737024131
0.998646979265
0.998541825633
0.998402736436
0.998265111674
0.998111244783
0.99794080115
0.997759530933
0.99755699388
0.99735245661
0.997114024485
0.996857696032
0.996570437144
0.996278657971
0.995968481833
0.995639771101
0.995292404269
0.994926274411
0.994479637269
0.998764944589
0.99877021002
0.998764145399
0.99874418653
0.998710233783
0.998662119124
0.998599617774
0.998522473709
0.998430381686
0.998323024662
0.998200072345
0.998041099436
0.997884839688
0.997711997761
0.997522294987
0.997322114786
0.997117164469
0.996876525569
0.996618070406
0.996341607487
0.99603319123
0.995721140144
0.995390638734
0.995041564398
0.994673808383
0.994287274564
0.998536967474
0.998521966267
0.998536031009
0.998515562688
0.998480764177
0.99843149483
0.998367566058
0.99828875332
0.998194798584
0.998085424387
0.997960340458
0.997798656156
0.997640149226
0.997465057993
0.997273108958
0.997069283398
0.99686403486
0.996621264944
0.996360740886
0.996082278563
0.995770080937
0.995456181159
0.995123906595
0.99477313475
0.994403756145
0.994015673302
0.998267187536
0.998273389818
0.99826502879
0.998267141041
0.998231584793
0.998181278126
0.998116060042
0.998035735869
0.997940082281
0.997828859641
0.99770180558
0.997537582376
0.997376986772
0.997199773581
0.997005697707
0.996798298606
0.996592871694
0.996348048355
0.996085521298
0.995805113546
0.995450737125
0.995173444281
0.994839422697
0.994486971935
0.994115982765
0.993726357251
0.997998628782
0.998004950262
0.997996426949
0.997973033152
0.997962645814
0.997911403951
0.997845018271
0.997763319511
0.997666109932
0.997553190619
0.997424329902
0.99725772912
0.997095176119
0.996915968828
0.996719881541
0.996506701015
0.99630349629
0.996056701663
0.995792242162
0.995509948649
0.99520966506
0.994872779978
0.99453704456
0.994182940679
0.993810360195
0.99341920551
0.997710197493
0.997716628947
0.997707959263
0.997684167544
0.997645196647
0.997590947128
0.997554368725
0.997471419344
0.997372798048
0.997258318668
0.997127782413
0.996980982654
0.996794571623
0.996613490525
0.996415507248
0.996200421458
0.995995750727
0.995747068478
0.995480749972
0.995196634324
0.994894571988
0.994510579309
0.994216639417
0.993860914146
0.99348676768
0.993094103449
0.997401873266
0.997408403153
0.997399599577
0.997375447075
0.997335894942
0.997280864566
0.997210250434
0.997123923458
0.997021734752
0.996944145518
0.996812059076
0.996663618071
0.996475047619
0.996292210268
0.996092437763
0.995875546871
0.995669494968
0.995419008922
0.995150906299
0.994865034668
0.994561251359
0.994170475107
0.993878084224
0.993520774078
0.993145091996
0.99275094302
0.997073659302
0.997080278696
0.997071355889
0.997046875113
0.997006793386
0.996951042152
0.996879529126
0.99679214099
0.996688746473
0.996569199692
0.996433343574
0.996281011815
0.996136500777
0.995952013964
0.995750555109
0.995531955671
0.995324605248
0.995072398346
0.994802586821
0.994515026717
0.994209582437
0.993812038693
0.99347271091
0.993162410785
0.992785227545
0.99238962293
0.996725545824
0.996732246906
0.99672321405
0.996698433493
0.996657867601
0.996601456281
0.996529118435
0.996440754158
0.996336247268
0.996215468077
0.996078274853
0.995924522287
0.995778839695
0.99559280477
0.995389757037