/*--------------------------------*- C++ -*----------------------------------*\
| =========                 |                                                 |
| \\      /  F ield         | OpenFOAM: The Open Source CFD Toolbox           |
|  \\    /   O peration     | Version:  2406                                  |
|   \\  /    A nd           | Website:  www.openfoam.com                      |
|    \\/     M anipulation  |                                                 |
\*---------------------------------------------------------------------------*/
FoamFile
{
    version     2.0;
    format      ascii;
    arch        "LSB;label=32;scalar=64";
    class       pointScalarField;
    location    "0";
    object      motionScale;
}
// * * * * * * * * * * * * * * * * * * * * * * * * * * * * * * * * * * * * * //

dimensions      [0 0 0 0 0 0 0];

internalField   nonuniform List<scalar> 
41879
(
0
0
0
0
0
0
0
0
0
0
0
0
0
0
0
0
0
0
0
0
0
0
0
0
0
0
0
0
0
0
0
0
0
0
0
0
0
0
0
0
0
0
0
0
0
0
0
0
0
0
0
0
0
0
0
0
0
0
0
0
0
0
0
0
0
0
0
0
0
0
0
0
0
0
0
0
0
0
0
0
0
0
0
0
0
0
0
0
0
0
0
0
0
0
0
0
0
0
0
0
0
0
0
0
0
0
0
0
0
0
0
0
0
0
0
0
0
0
0
0
0
0
0
0
0
0
0
0
0
0
0
0
0
0
0
0
0
0
0
0
0
0
0
0
0
0
0
0
0
0
0
0
0
0
0
0
0
0
0
0
0
0
0
0
0
0
0
0
0
0
0
0
0
0
0
0
0
0
0
0
0
0
0
0
0
0
0
0
0
0
0
0
0
0
0
0
0
0
0
0
0
0
0
0
0
0
0
0
0
0
0
0
0
0
0
0
0
0
0
0
0
0
0
0
0
0
0
0
0
0
0
0
0
0
0
0
0
0
0
0
0
0
0
0
0
0
0
0
0
0
0
0
0
0
0
0
0
0
0
0
0
0
0
0
0
0
0
0
0
0
0
0
0
0
0
0
0
0
0
0
0
0
0
0
0
0
0
0
0
0
0
0
0
0
0
0
0
0
0
0
0
0
0
0
0
0
0
0
0
0
0
0
0
0
0
0
0
0
0
0
0
0
0
0
0
0
0
0
0
0
0
0
0
0
0
0
0
0
0
0
0
0
0
0
0
0
0
0
0
0
0
0
0
0
0
0
0
0
0
0
0
0
0
0
0
0
0
0
0
0
0
0
0
0
0
0
0
0
0
0
0
0
0
0
0
0
0
0
0
0
0
0
0
0
0
0
0
0
0
0
0
0
0
0
0
0
0
0
0
0
0
0
0
0
0
0
0
0
0
0
0
0
0
0
0
0
0
0
0
0
0
0
0
0
0
0
0
0
0
0
0
0
0
0
0
0
0
0
0
0
0
0
0
0
0
0
0
0
0
0
0
0
0
0
0
0
0
0
0
0
0
0
0
0
0
0
0
0
0
0
0
0
0
0
0
0
0
0
0
0
0
0
0
0
0
0
0
0
0
0
0
0
0
0
0
0
0
0
0
0
0
0
0
0
0
0
0
0
0
0
0
0
0
0
0
0
0
0
0
0
0
0
0
0
0
0
0
0
0
0
0
0
0
0
0
0
0
0
0
0
0
0
0
0
0
0
0
0
0
0
0
0
0
0
0
0
0
0
0
0
0
0
0
0
0
0
0
0
0
0
0
0
0
0
0
0
0
0
0
0
0
0
0
0
0
0
0
0
0
0
0
0
0
0
0
0
0
0
0
0
0
0
0
0
0
0
0
0
0
0
0
0
0
0
0
0
0
0
0
0
0
0
0
0
0
0
0
0
0
0
0
0
0
0
0
0
0
0
0
0
0
0
0
0
0
0
0
0
0
0
0
0
0
0
0
0
0
0
0
0
0
0
0
0
0
0
0
0
0
0
0
0
0
0
0
0
0
0
0
0
0
0
0
0
0
0
0
0
0
0
0
0
0
0
0
0
0
0
0
0
0
0
0
0
0
0
0
0
0
0
0
0
0
0
0
0
0
0
0
0
0
0
0
0
0
0
0
0
0
0
0
0
0
0
0
0
0
0
0
0
0
0
0
0
0
0
0
0
0
0
0
0
0
0
0
0
0
0
0
0
0
0
0
0
0
0
0
0
0
0
0
0
0
0
0
0
0
0
0
0
0
0
0
0
0
0
0
0
0
0
0
0
0
0
0
0
0
0
0
0
0
0
0
0
0
0
0
0
0
0
0
0
0
0
0
0
0
0
0
0
0
0
0
0
0
0
0
0
0
0
0
0
0
0
0
0
0
0
0
0
0
0
0
0
0
0
0
0
0
0
0
0
0
0
0
0
0
0
0
0
0
0
0
0
0
0
0
0
0
0
0
0
0
0
0
0
0
0
0
0
0
0
0
0
0
0
0
0
0
0
0
0
0
0
0
0
0
0
0
0
0
0
0
0
0
0
0
0
0
0
0
0
0
0
0
0
0
0
0
0
0
0
0
0
0
0
0
0
0
0
0
0
0
0
0
0
0
0
0
0
0
0
0
0
0
0
0
0
0
0
0
0
0
0
0
0
0
0
0
0
0
0
0
0
0
0
0
0
0
0
0
0
0
0
0
0
0
0
0
0
0
0
0
0
0
0
0
0
0
0
0
0
0
0
0
0
0
0
0
0
0
0
0
0
0
0
0
0
0
0
0
0
0
0
0
0
0
0
0
0
0
0
0
0
0
0
0
0
0
0
0
0
0
0
0
0
0
0
0
0
0
0
0
0
0
0
0
0
0
0
0
0
0
0
0
0
0
0
0
0
0
0
0
0
0
0
0
0
0
0
0
0
0
0
0
0
0
0
0
0
0
0
0
0
0
0
0
0
0
0
0
0
0
0
0
0
0
0
0
0
0
0
0
0
0
0
0
0
0
0
0
0
0
0
0
0
0
0
0
0
0
0
0
0
0
0
0
0
0
0
0
0
0
0
0
0
0
0
0
0
0
0
0
0
0
0
0
0
0
0
0
0
0
0
0
0
0
0
0
0
0
0
0
0
0
0
0
0
0
0
0
0
0
0
0
0
0
0
0
0
0
0
0
0
0
0
0
0
0
0
0
0
0
0
0
0
0
0
0
0
0
0
0
0
0
0
0
0
0
0
0
0
0
0
0
0
0
0
0
0
0
0
0
0
0
0
0
0
0
0
0
0
0
0
0
0
0
0
0
0
0
0
0
0
0
0
0
0
0
0
0
0
0
0
0
0
0
0
0
0
0
0
0
0
0
0
0
0
0
0
0
0
0
0
0
0
0
0
0
0
0
0
0
0
0
0
0
0
0
0
0
0
0
0
0
0
0
0
0
0
0
0
0
0
0
0
0
0
0
0
0
0
0
0
0
0
0
0
0
0
0
0
0
0
0
0
0
0
0
0
0
0
0
0
0
0
0
0
0
0
0
0
0
0
0
0
0
0
0
0
0
0
0
0
0
0
0
0
0
0
0
0
0
0
0
0
0
0
0
0
0
0
0
0
0
0
0
0
0
0
0
0
0
0
0
0
0
0
0
0
0
0
0
0
0
0
0
0
0
0
0
0
0
0
0
0
0
0
0
0
0
0
0
0
0
0
0
0
0
0
0
0
0
0
0
0
0
0
0
0
0
0
0
0
0
0
0
0
0
0
0
0
0
0
0
0
0
0
0
0
0
0
0
0
0
0
0
0
0
0
0
0
0
0
0
0
0
0
0
0
0
0
0
0
0
0
0
0
0
0
0
0
0
0
0
0
0
0
0
0
0
0
0
0
0
0
0
0
0
0
0
0
0
0
0
0
0
0
0
0
0
0
0
0
0
0
0
0
0
0
0
0
0
0
0
0
0
0
0
0
0
0
0
0
0
0
0
0
0
0
0
0
0
0
0
0
0
0
0
0
0
0
0
0
0
0
0
0
0
0
0
0
0
0
0
0
0
0
0
0
0
0
0
0
0
0
0
0
0
0
0
0
0
0
0
0
0
0
0
0
0
0
0
0
0
0
0
0
0
0
0
0
0
0
0
0
0
0
0
0
0
0
0
0
0
0
0
0
0
0
0
0
0
0
0
0
0
0
0
0
0
0
0
0
0
0
0
0
0
0
0
0
0
0
0
0
0
0
0
0
0
0
0
0
0
0
0
0
0
0
0
0
0
0
0
0
0
0
0
0
0
0
0
0
0
0
0
0
0
0
0
0
0
0
0
0
0
0
0
0
0
0
0
0
0
0
0
0
0
0
0
0
0
0
0
0
0
0
0
0
0
0
0
0
0
0
0
0
0
0
0
0
0
0
0
0
0
0
0
0
0
0
0
0
0
0
0
0
0
0
0
0
0
0
0
0
0
0
0
0
0
0
0
0
0
0
0
0
0
0
0
0
0
0
0
0
0
0
0
0
0
0
0
0
0
0
0
0
0
0
0
0
0
0
0
0
0
0
0
0
0
0
0
0
0
0
0
0
0
0
0
0
0
0
0
0
0
0
0
0
0
0
0
0
0
0
0
0
0
0
0
0
0
0
0
0
0
0
0
0
0
0
0
0
0
0
0
0
0
0
0
0
0
0
0
0
0
0
0
0
0
0
0
0
0
0
0
0
0
0
0
0
0
0
0
0
0
0
0
0
0
0
0
0
0
0
0
0
0
0
0
0
0
0
0
0
0
0
0
0
0
0
0
0
0
0
0
0
0
0
0
0
0
0
0
0
0
0
0
0
0
0
0
0
0
0
0
0
0
0
0
0
0
0
0
0
0
0
0
0
0
0
0
0
0
0
0
0
0
0
0
0
0
0
0
0
0
0
0
0
0
0
0
0
0
0
0
0
0
0
0
0
0
0
0
0
0
0
0
0
0
0
0
0
0
0
0
0
0
0
0
0
0
0
0
0
0
0
0
0
0
0
0
0
0
0
0
0
0
0
0
0
0
0
0
0
0
0
0
0
0
0
0
0
0
0
0
0
0
0
0
0
0
0
0
0
0
0
0
0
0
0
0
0
0
0
0
0
0
0
0
0
0
0
0
0
0
0
0
0
0
0
0
0
0
0
0
0
0
0
0
0
0
0
0
0
0
0
0
0
0
0
0
0
0
0
0
0
0
0
0
0
0
0
0
0
0
0
0
0
0
0
0
0
0
0
0
0
0
0
0
0
0
0
0
0
0
0
0
0
0
0
0
0
0
0
0
0
0
0
0
0
0
0
0
0
0
0
0
0
0
0
0
0
0
0
0
0
0
0
0
0
0
0
0
0
0
0
0
0
0
0
0
0
0
0
0
0
0
0
0
0
0
0
0
0
0
0
0
0
0
0
0
0
0
0
0
0
0
0
0
0
0
0
0
0
0
0
0
0
0
0
0
0
0
0
0
0
0
0
0
0
0
0
0
0
0
0
0
0
0
0
0
0
0
0
0
0
0
0
0
0
0
0
0
0
0
0
0
0
0
0
0
0
0
0
0
0
0
0
0
0
0
0
0
0
0
0
0
0
0
0
0
0
0
0
0
0
0
0
0
0
0
0
0
0
0
0
0
0
0
0
0
0
0
0
0
0
0
0
0
0
0
0
0
0
0
0
0
0
0
0
0
0
0
0
0
0
0
0
0
0
0
0
0
0
0
0
0
0
0
0
0
0
0
0
0
0
0
0
0
0
0
0
0
0
0
0
0
0
0
0
0
0
0
0
0
0
0
0
0
0
0
0
0
0
0
0
0
0
0
0
0
0
0
0
0
0
0
0
0
0
0
0
0
0
0
0
0
0
0
0
0
0
0
0
0
0
0
0
0
0
0
0
0
0
0
0
0
0
0
0
0
0
0
0
0
0
0
0
0
0
0
0
0
0
0
0
0
0
0
0
0
0
0
0
0
0
0
0
0
0
0
0
0
0
0
0
0
0
0
0
0
0
0
0
0
0
0
0
0
0
0
0
0
0
0
0
0
0
0
0
0
0
0
0
0
0
0
0
0
0
0
0
0
0
0
0
0
0
0
0
0
0
0
0
0
0
0
0
0
0
0
0
0
0
0
0
0
0
0
0
0
0
0
0
0
0
0
0
0
0
0
0
0
0
0
0
0
0
0
0
0
0
0
0
0
0
0
0
0
0
0
0
0
0
0
0
0
0
0
0
0
0
0
0
0
0
0
0
0
0
0
0
0
0
0
0
0
0
0
0
0
0
0
0
0
0
0
0
0
0
0
0
0
0
0
0
0
0
0
0
0
0
0
0
0
0
0
0
0
0
0
0
0
0
0
0
0
0
0
0
0
0
0
0
0
0
0
0
0
0
0
0
0
0
0
0
0
0
0
0
0
0
0
0
0
0
0
0
0
0
0
0
0
0
0
0
0
0
0
0
0
0
0
0
0
0
0
0
0
0
0
0
0
0
0
0
0
0
0
0
0
0
0
0
0
0
0
0
0
0
0
0
0
0
0
0
0
0
0
0
0
0
0
0
0
0
0
0
0
0
0
0
0
0
0
0
0
0
0
0
0
0
0
0
0
0
0
0
0
0
0
0
0
0
0
0
0
0
0
0
0
0
0
0
0
0
0
0
0
0
0
0
0
0
0
0
0
0
0
0
0
0
0
0
0
0
0
0
0
0
0
0
0
0
0
0
0
0
0
0
0
0
0
0
0
0
0
0
0
0
0
0
0
0
0
0
0
0
0
0
0
0
0
0
0
0
0
0
0
0
0
0
0
0
0
0
0
0
0
0
0
0
0
0
0
0
0
0
0
0
0
0
0
0
0
0
0
0
0
0
0
0
0
0
0
0
0
0
0
0
0
0
0
0
0
0
0
0
0
0
0
0
0
0
0
0
0
0
0
0
0
0
0
0
0
0
0
0
0
0
0
0
0
0
0
0
0
0
0
0
0
0
0
0
0
0
0
0
0
0
0
0
0
0
0
0
0
0
0
0
0
0
0
0
0
0
0
0
0
0
0
0
0
0
0
0
0
0
0
0
0
0
0
0
0
0
0
0
0
0
0
0
0
0
0
0
0
0
0
0
0
0
0
0
0
0
0
0
0
0
0
0
0
0
0
0
0
0
0
0
0
0
0
0
0
0
0
0
0
0
0
0
0
0
0
0
0
0
0
0
0
0
0
0
0
0
0
0
0
0
0
0
0
0
0
0
0
0
0
0
0
0
0
0
0
0
0
0
0
0
0
0
0
0
0
0
0
0
0
0
0
0
0
0
0
0
0
0
0
0
0
0
0
0
0
0
0
0
0
0
0
0
0
0
0
0
0
0
0
0
0
0
0
0
0
0
0
0
0
0
0
0
0
0
0
0
0
0
0
0
0
0
0
0
0
0
0
0
0
0
0
0
0
0
0
0
0
0
0
0
0
0
0
0
0
0
0
0
0
0
0
0
0
0
0
0
0
0
0
0
0
0
0
0
0
0
0
0
0
0
0
0
0
0
0
0
0
0
0
0
0
0
0
0
0
0
0
0
0
0
0
0
0
0
0
0
0
0
0
0
0
0
0
0
0
0
0
0
0
0
0
0
0
0
0
0
0
0
0
0
0
0
0
0
0
0
0
0
0
0
0
0
0
0
0
0
0
0
0
0
0
0
0
0
0
0
0
0
0
0
0
0
0
0
0
0
0
0
0
0
0
0
0
0
0
0
0
0
0
0
0
0
0
0
0
0
0
0
0
0
0
0
0
0
0
0
0
0
0
0
0
0
0
0
0
0
0
0
0
0
0
0
0
0
0
0
0
0
0
0
0
0
0
0
0
0
0
0
0
0
0
0
0
0
0
0
0
0
0
0
0
0
0
0
0
0
0
0
0
0
0
0
0
0
0
0
0
0
0
0
0
0
0
0
0
0
0
0
0
0
0
0
0
0
0
0
0
0
0
0
0
0
0
0
0
0
0
0
0
0
0
0
0
0
0
0
0
0
0
0
0
0
0
0
0
0
0
0
0
0
0
0
0
0
0
0
0
0
0
0
0
0
0
0
0
0
0
0
0
0
0
0
0
0
0
0
0
0
0
0
0
0
0
0
0
0
0
0
0
0
0
0
0
0
0
0
0
0
0
0
0
0
0
0
0
0
0
0
0
0
0
0
0
0
0
0
0
0
0
0
0
0
0
0
0
0
0
0
0
0
0
0
0
0
0
0
0
0
0
0
0
0
0
0
0
0
0
0
0
0
0
0
0
0
0
0
0
0
0
0
0
0
0
0
0
0
0
0
0
0
0
0
0
0
0
0
0
0
0
0
0
0
0
0
0
0
0
0
0
0
0
0
0
0
0
0
0
0
0
0
0
0
0
0
0
0
0
0
0
0
0
0
0
0
0
0
0
0
0
0
0
0
0
0
0
0
0
0
0
0
0
0
0
0
0
0
0
0
0
0
0
0
0
0
0
0
0
0
0
0
0
0
0
0
0
0
0
0
0
0
0
0
0
0
0
0
0
0
0
0
0
0
0
0
0
0
0
0
0
0
0
0
0
0
0
0
0
0
0
0
0
0
0
0
0
0
0
0
0
0
0
0
0
0
0
0
0
0
0
0
0
0
0
0
0
0
0
0
0
0
0
0
0
0
0
0
0
0
0
0
0
0
0
0
0
0
0
0
0
0
0
0
0
0
0
0
0
0
0
0
0
0
0
0
0
0
0
0
0
0
0
0
0
0
0
0
0
0
0
0
0
0
0
0
0
0
0
0
0
0
0
0
0
0
0
0
0
0
0
0
0
0
0
0
0
0
0
0
0
0
0
0
0
0
0
0
0
0
0
0
0
0
0
0
0
0
0
0
0
0
0
0
0
0
0
0
0
0
0
0
0
0
0
0
0
0
0
0
0
0
0
0
0
0
0
0
0
0
0
0
0
0
0
0
0
0
0
0
0
0
0
0
0
0
0
0
0
0
0
0
0
0
0
0
0
0
0
0
0
0
0
0
0
0
0
0
0
0
0
0
0
0
0
0
0
0
0
0
0
0
0
0
0
0
0
0
0
0
0
0
0
0
0
0
0
0
0
0
0
0
0
0
0
0
0
0
0
0
0
0
0
0
0
0
0
0
0
0
0
0
0
0
0
0
0
0
0
0
0
0
0
0
0
0
0
0
0
0
0
0
0
0
0
0
0
0
0
0
0
0
0
0
0
0
0
0
0
0
0
0
0
0
0
0
0
0
0
0
0
0
0
0
0
0
0
0
0
0
0
0
0
0
0
0
0
0
0
0
0
0
0
0
0
0
0
0
0
0
0
0
0
0
0
0
0
0
0
0
0
0
0
0
0
0
0
0
0
0
0
0
0
0
0
0
0
0
0
0
0
0
0
0
0
0
0
0
0
0
0
0
0
0
0
0
0
0
0
0
0
0
0
0
0
0
0
0
0
0
0
0
0
0
0
0
0
0
0
0
0
0
0
0
0
0
0
0
0
0
0
0
0
0
0
0
0
0
0
0
0
0
0
0
0
0
0
0
0
0
0
0
0
0
0
0
0
0
0
0
0
0
0
0
0
0
0
0
0
0
0
0
0
0
0
0
0
0
0
0
0
0
0
0
0
0
0
0
0
0
0
0
0
0
0
0
0
0
0
0
0
0
0
0
0
0
0
0
0
0
0
0
0
0
0
0
0
0
0
0
0
0
0
0
0
0
0
0
0
0
0
0
0
0
0
0
0.664761232484
0.705277631949
0.744231701312
0.781326976655
0.816281141021
0.848828173202
0.878720372619
0.905730245016
0.929652640585
0.950304636596
0.967529542479
0.981196524481
0.991201478185
0.997468672876
0.99995324143
0.999185033182
1
0.652454105792
0.646930346596
0.640416711374
0.632932178724
0.624499353143
0.615143076516
0.604890927898
0.593774212008
0.581826043853
0.569082080544
0.55558169158
0.692510078532
0.686778241825
0.680018119233
0.672248871775
0.663493367116
0.653776746622
0.643126951588
0.631575757335
0.619156789738
0.605906290122
0.591864337029
0.731035119055
0.725109122699
0.718118802301
0.710083409679
0.701025979633
0.690971858582
0.67994925787
0.667990332311
0.655129133806
0.641402407547
0.626850862088
0.767735962068
0.76163107418
0.754428380583
0.746147109603
0.736810346947
0.726443533122
0.715075044668
0.702737315738
0.689464734018
0.675294465726
0.660267769932
0.802333760049
0.796066669886
0.788671014858
0.780165854683
0.77057418403
0.75992140715
0.748235947866
0.735550412035
0.721899430411
0.707320508644
0.691855380467
0.834566404995
0.828155335847
0.820587800402
0.811882502719
0.802062172469
0.79115202618
0.779180405897
0.766179978565
0.752185528809
0.737234827922
0.721370018551
0.864190837165
0.857655719971
0.849939174329
0.841059305514
0.831038366956
0.819901216942
0.807675982756
0.794395288966
0.780093999482
0.76481009595
0.748586083773
0.890985407563
0.884348138022
0.876507400935
0.867480388949
0.857288631849
0.845956452318
0.833511644122
0.819986713089
0.805416561203
0.789839359675
0.773297962708
0.914752434939
0.908037232576
0.90009924736
0.890954370423
0.880623145992
0.869129212097
0.856499962879
0.842767771207
0.827967597693
0.812137837703
0.795321726573
0.935321429343
0.928555093812
0.920549025802
0.911317207351
0.900878995345
0.889257303109
0.876479181837
0.862576972355
0.847585811636
0.831544429969
0.814496532429
0.952552454104
0.945765261145
0.937722226115
0.92843562342
0.91792277818
0.906206991662
0.893314957932
0.879279261562
0.864135458082
0.847922805985
0.830685619375
0.96634347728
0.959568171122
0.951519841453
0.942209128115
0.931652871057
0.919874561386
0.906901431595
0.892766779136
0.877506925768
0.86116189974
0.843776776894
0.976970690094
0.97030041419
0.96233517924
0.953086240893
0.942000405686
0.930186514071
0.917161037365
0.902958525452
0.887616399047
0.871175645014
0.853682188578
0.983754621636
0.977149805061
0.969224370259
0.959993739911
0.949478822599
0.937097269529
0.924042384593
0.909798571078
0.894404431625
0.877901893532
0.860337654275
0.987120152446
0.980568518574
0.972674927702
0.963460780362
0.952950655096
0.941252108327
0.927515995269
0.913252869966
0.897833598214
0.88130071027
0.863701376724
0.987152867868
0.980601672923
0.972708440737
0.963494483662
0.952984423392
0.941412883256
0.928416000851
0.914221137937
0.897885917351
0.881352571145
0.863752705807
0.660470088248
0.656971861306
0.700826451747
0.697197361803
0.73963149786
0.735880469902
0.77658991069
0.772726778833
0.811420635933
0.80745622014
0.843859105083
0.839805336615
0.873659388668
0.869529515072
0.900596319418
0.896405231106
0.924467602571
0.920232427004
0.945096287442
0.940837296008
0.962334143539
0.958076098162
0.976065836601
0.971841466623
0.986432348238
0.98234478054
0.992994268362
0.989033343333
0.996141256306
0.992314191206
0.996260287837
0.992454299532
0.664370489097
0.662938714386
0.70487233837
0.703387210022
0.743812863392
0.742278061813
0.780895706357
0.779315298032
0.815838667867
0.814217145531
0.848375863377
0.846718212855
0.878259761372
0.876571574246
0.90526309315
0.903550761498
0.929181037285
0.927451705013
0.949831202464
0.948095035288
0.967057845367
0.965326980935
0.980732107832
0.979025155107
0.990754688315
0.989256047459
0.997134861844
0.99567069347
0.999764618005
0.998605842209
0.999936026591
0.999965642349
1
0.997444366341
0.998889360488
0.999958350579
1
0.99915730719
1
0.999339493198
0.998962982223
1
1
1
1
0.99963634164
1
0.999876428842
0.999922813209
1
1
1
0.999990042269
1
1
1
1
1
1
1
1
1
1
1
1
1
1
1
1
1
1
1
1
1
1
1
1
1
1
1
1
1
1
1
1
1
1
1
1
1
1
1
1
1
1
1
1
1
1
1
1
1
1
1
1
1
1
1
1
1
1
1
1
1
1
1
1
1
1
1
1
1
1
1
1
1
1
1
1
1
1
1
1
1
1
1
1
1
1
1
1
1
1
1
1
1
1
1
1
1
1
1
1
1
1
1
1
1
1
1
1
1
1
1
1
1
1
1
1
1
1
1
1
1
1
1
1
1
1
1
1
1
1
1
1
1
1
1
1
1
1
1
1
1
1
1
1
1
1
1
1
1
1
1
1
1
1
1
1
1
1
1
1
1
1
1
1
1
1
1
1
1
1
1
1
1
1
1
1
1
1
1
1
1
1
1
1
1
1
1
1
1
1
1
1
1
1
1
1
1
1
1
1
1
1
1
1
1
1
1
1
1
1
1
1
1
1
1
1
1
1
1
1
1
1
1
1
1
1
1
1
1
1
1
1
1
1
1
1
1
1
1
1
1
1
1
1
1
1
1
1
1
1
1
1
1
1
1
1
1
1
1
1
1
1
1
1
1
1
1
1
1
1
1
1
1
1
1
1
1
1
1
1
1
1
1
1
1
1
1
0.996548130874
0.997547620604
1
0.999999620762
0.999999747855
1
1
1
1
1
1
1
1
1
1
1
1
1
1
1
1
1
1
1
1
1
1
1
1
1
1
1
1
1
1
1
1
1
1
1
1
1
1
1
1
1
1
1
1
1
1
1
1
1
1
1
1
1
1
1
1
1
1
0.998362505287
1
1
1
1
1
1
1
1
1
1
1
1
1
1
1
1
1
1
1
1
1
1
1
1
1
1
1
1
1
1
1
1
1
1
1
1
1
1
1
1
1
1
1
1
1
1
1
1
1
1
1
1
1
1
1
1
1
1
1
1
1
1
1
1
1
1
1
1
0.999588360129
0.999844637052
1
1
0.999557603476
1
1
1
1
1
1
1
1
1
1
1
1
1
1
0.999780694132
1
1
1
1
1
1
1
1
1
1
1
1
1
1
1
1
1
1
1
1
1
1
1
1
1
1
1
1
1
1
1
1
1
1
1
1
1
1
1
1
1
1
0.996532260915
0.997542516265
1
1
0.99791304658
1
1
1
1
1
1
1
1
1
1
1
1
1
1
1
1
1
1
1
1
1
1
1
0.664240069918
0.662678240973
0.66008029615
0.656453882149
0.651809437942
0.64616087194
0.639524681125
0.631920210073
0.623370435427
0.613900554694
0.603538496121
0.592315915398
0.580266259235
0.567425506388
0.553833344817
0.70473706176
0.703117023866
0.700422095839
0.696659975622
0.691841171577
0.685979711965
0.679092239014
0.671198286026
0.662321100433
0.652486187215
0.641721845508
0.630060211185
0.617535251318
0.604183538576
0.590045480096
0.743673064957
0.741998831593
0.739213584937
0.735324994362
0.730343602539
0.724283468657
0.717161293299
0.708996706375
0.699813129929
0.68963628215
0.678494741247
0.666421032626
0.653449559433
0.639617408435
0.624965627381
0.780751757049
0.779027762208
0.776159530266
0.772154664288
0.767023625604
0.760780411401
0.753441669809
0.745027012834
0.73555992116
0.72506621586
0.71357465022
0.701118039959
0.687731134991
0.673451454191
0.65832060713
0.815690977761
0.813922119362
0.810978998924
0.80686905982
0.801602563005
0.795193306059
0.787657739955
0.779015314043
0.769289426699
0.75850587298
0.74669346496
0.733885202621
0.720116091396
0.705424001912
0.689851030659
0.848224887966
0.846416600035
0.843407549327
0.839204883173
0.833818492007
0.827261783262
0.81955081721
0.810704695025
0.800746561167
0.789702035969
0.777599863999
0.764473121378
0.750356981972
0.735289596011
0.719313482301
0.878106015905
0.876264393777
0.873199415054
0.868917707259
0.863428745058
0.85674471404
0.848881567399
0.839857636217
0.829695604509
0.818420752217
0.806061627808
0.792651283695
0.778224990353
0.762821124245
0.746482581481
0.905107160164
0.903239166614
0.90012960138
0.895784236712
0.890211557218
0.883422663306
0.87543249577
0.866258489976
0.855922630849
0.844449688518
0.83186790304
0.818210231463
0.803512002796
0.787811800728
0.771152885434
0.929023614909
0.927137042476
0.923996100272
0.919604711989
0.913969727556
0.907100555571
0.89901061907
0.889716383031
0.879237996421
0.868942921527
0.856314900658
0.84258412959
0.82778556871
0.811957611713
0.795143490975
0.94967315863
0.947778977459
0.944622341783
0.940205734875
0.934532957645
0.928391693344
0.920385871387
0.911154753791
0.900716823326
0.889095885248
0.876318698461
0.862417603867
0.847427736719
0.831387824321
0.814341567769
0.966900356432
0.965011723544
0.961860700633
0.957940106672
0.952416180389
0.945629040237
0.937585755723
0.928299286995
0.91778674587
0.906071436632
0.893180052536
0.879145174987
0.864002355136
0.847790846474
0.830554957714
0.980576985896
0.978713896219
0.975958849742
0.971733885853
0.966235144589
0.959459592567
0.951410739346
0.942099902143
0.931543698114
0.919765612856
0.906792871318
0.892658762895
0.877399601559
0.861055408309
0.843671252246
0.990605291028
0.989028411209
0.986144551319
0.981995493383
0.976559523509
0.969827566947
0.96180131962
0.952492389205
0.941918546267
0.930104673748
0.917079364207
0.902877154689
0.887535455422
0.871095244654
0.853602440361
0.997021887661
0.995500037796
0.992761662954
0.988737257959
0.98339488021
0.976726728569
0.968739068214
0.959447400733
0.948872833292
0.93704282628
0.92398834969
0.909744227374
0.894350280732
0.877848019644
0.860284135499
0.998535835897
0.996040371666
0.992184334853
0.986962367601
0.980194028937
0.972237640078
0.962961957862
0.952391698594
0.940556654193
0.927489371245
0.913225770831
0.897806483686
0.881273625793
0.863674364667
0.99612898267
0.992278240902
0.987059299284
0.980273436077
0.972317886497
0.963042640175
0.952472524016
0.940637392466
0.927569831224
0.912468682343
0.896979142324
0.881352380156
0.863752311414
0.997335461719
0.99640704523
0.997444194721
0.997456769173
0.996461588536
0.999728506001
0.999917294061
0.999955729261
1
1
0.998807425156
0.999944630809
1
0.999100407659
1
0.999286064206
0.998903561798
0.999999992657
1
1
1
0.999602373208
1
0.999847287244
0.999902954864
1
1
1
1
1
0.999981208285
1
1
1
1
1
1
1
1
1
1
1
1
1
0.998252098405
0.999821276665
1
0.999996582344
0.999997807296
1
1
0.999543543081
1
0.999518885308
0.99975099993
0.99785649631
1
1
0.651938954835
0.646417910987
0.63990749129
0.632426671528
0.623998052325
0.614646471236
0.604399502194
0.59328844342
0.581346402946
0.568609029997
0.555115684607
0.650395154888
0.644882254255
0.638381471549
0.630911786292
0.6224957813
0.61315828108
0.602926844153
0.591832749209
0.579909083311
0.567191471996
0.553719246886
0.647827243583
0.64232790766
0.63584319375
0.628392054771
0.619997060044
0.610683012154
0.600477443768
0.589411600879
0.577518535478
0.56483383352
0.551396779197
0.644242844572
0.638762483552
0.632300237899
0.62487504005
0.616509431463
0.607228183672
0.597058792811
0.586032458798
0.574182184268
0.561543499549
0.548155622271
0.639652365901
0.634196374827
0.627762984172
0.620371099423
0.612043225595
0.602804093694
0.592681152326
0.581705541676
0.569910200487
0.557330587213
0.544005833642
0.634069667698
0.628643418397
0.622245240948
0.614894006998
0.60661217612
0.597424428917
0.587358155088
0.576444421095
0.564716086967
0.552208522797
0.538960755073
0.627511189651
0.622120026511
0.615763386818
0.608460101025
0.600232573798
0.591105425005
0.581105973634
0.570265198053
0.558615864421
0.546193237715
0.533036219454
0.619996205024
0.614645438578
0.608336619869
0.601088530311
0.592923509709
0.583866106371
0.573943556323
0.563186735062
0.55162829937
0.539303392047
0.526250769759
0.611547593752
0.606242489193
0.59998771976
0.592802009493
0.584707622887
0.575729025391
0.565893357351
0.555231376226
0.54377561355
0.531561072603
0.518626345106
0.602190445756
0.596936218063
0.59074166552
0.583625445974
0.575609737684
0.566718911457
0.556979998802
0.546423623558
0.535082175801
0.522990501644
0.510187007553
0.591952562923
0.586754368481
0.580626129897
0.573586429566
0.565657348129
0.556863149527
0.547230742838
0.536790602338
0.525574960084
0.513618487104
0.5009593841
0.580865441946
0.57572836394
0.569672448647
0.562716193354
0.55488156931
0.546192720965
0.536676421008
0.526362977876
0.515284448766
0.503475311465
0.490973540251
0.568962359418
0.563891402963
0.557913726904
0.551047733411
0.543315272226
0.534740355333
0.525349604739
0.515173146481
0.504242845796
0.492592968865
0.480261242743
0.556279102639
0.551279185322
0.545385559969
0.538616523346
0.530993791284
0.522541230042
0.513285296373
0.50325591713
0.492484748275
0.481005825853
0.468856608807
0.542855130858
0.537931066099
0.532127178896
0.525461650108
0.517956049056
0.509634082803
0.500522028088
0.490649595641
0.480048214704
0.468751672565
0.456797139148
0.691975559177
0.68624645863
0.679489578481
0.671724077839
0.662972821401
0.653260947061
0.642616391783
0.631070925089
0.618658166465
0.60541434983
0.591379544623
0.690373670395
0.684652776486
0.67790562126
0.67015135173
0.661412836211
0.651715195781
0.641086354336
0.629558063924
0.617163924825
0.603940148697
0.58992677763
0.687708984078
0.682001763823
0.675270811249
0.667535269679
0.658817979519
0.64914405042
0.638541384261
0.627041703752
0.614678576978
0.601488178353
0.587510504276
0.683989186592
0.678301100351
0.671592819232
0.663883472002
0.655195877083
0.645555118718
0.634989067452
0.623529404487
0.611209652462
0.598065933351
0.58413817937
0.679224770437
0.673561269535
0.666882116606
0.659206420732
0.650556971114
0.640958818414
0.630439792056
0.619031519146
0.606767463275
0.593683678494
0.579820014127
0.67342973331
0.667796253059
0.661152664476
0.653518051182
0.644915165276
0.635369015054
0.624907378472
0.613561815457
0.601365716533
0.588355052005
0.574569569342
0.666620679617
0.661022635831
0.65442102288
0.646834892435
0.638286950901
0.628802154742
0.618408219463
0.607136624178
0.595020671839
0.582096232796
0.568402933411
0.658817091572
0.653259874482
0.646706616302
0.639176329513
0.630691665494
0.621277518685
0.610961530491
0.599775084984
0.587751382533
0.574926176898
0.561338953759
0.650042139866
0.644531102551
0.638032532432
0.630565394829
0.622152276015
0.612817997498
0.602590114262
0.591499900516
0.579580438517
0.566867348375
0.553399955204
0.640321240955
0.634861694132
0.628424093432
0.62102734832
0.612693969171
0.603448692952
0.593318975243
0.582335964985
0.570532610275
0.557944380086
0.544610418755
0.629682585096
0.624279788114
0.617909375714
0.610590192156
0.602344660465
0.593197420795
0.583175815724
0.572310852961
0.56063532991
0.548184546505
0.534997445791
0.618158164424
0.612817309761
0.606520223878
0.599285675904
0.591135989473
0.582095695081
0.57219200815
0.561455778713
0.549919636506
0.53761869417
0.524591672676
0.605781788911
0.600507996405
0.594290287953
0.587147347127
0.579101385628
0.570176810937
0.560400696687
0.549803718353
0.538418320642
0.526279410314
0.513425465255
0.592589850292
0.587388156656
0.581255777034
0.574211298608
0.566276808194
0.557476576481
0.54783752027
0.537390123246
0.526166627402
0.514201714758
0.501533598919
0.578622534763
0.573497875801
0.567456656045
0.560517355149
0.552701921783
0.544034475761
0.534541761713
0.524254054047
0.513203374121
0.501424160176
0.48895434023
0.730482533567
0.724559278093
0.717572209125
0.709540577914
0.700487417592
0.690438072329
0.679420750232
0.667467601252
0.654612671683
0.640892699922
0.626348385861
0.728826453209
0.722911420045
0.715934104612
0.707913749807
0.69887339668
0.68883837598
0.677836885997
0.665901061997
0.653064933376
0.639365218091
0.624842590003
0.726071457091
0.72017012863
0.713209068913
0.705207523793
0.696188512258
0.686177359734
0.675202247783
0.663295286889
0.650490478031
0.636824504905
0.62233799785
0.722225250657
0.716343109662
0.709404806596
0.701429581412
0.692440439582
0.682462689074
0.671524487286
0.659657909371
0.646896916009
0.633278142526
0.618842158045
0.717298353559
0.711440882927
0.704531835413
0.696590441857
0.687639688865
0.677704860581
0.666814082103
0.654999382109
0.642294668603
0.628736514049
0.614365408383
0.711304831118
0.705477508451
0.698604206557
0.690704142937
0.681800279004
0.671917867786
0.661084993121
0.649333625352
0.636697606846
0.623213432249
0.608921494003
0.704261374976
0.698469670017
0.691638591737
0.683787338971
0.674938840528
0.665118310013
0.654353780114
0.642677150192
0.630122183338
0.616725280898
0.60252671912
0.696187593474
0.690436962341
0.683654566693
0.675859580244
0.667074890664
0.657325662763
0.646639867227
0.635049318929
0.622587687337
0.609291264431
0.595200191139
0.68710686061
0.681402733939
0.674675446996
0.666944140797
0.658231652242
0.648563086917
0.637966341674
0.626473132551
0.614117020313
0.600934170922
0.586964570422
0.677044832853
0.671392609889
0.664726817952
0.657066556737
0.648434601685
0.638855987716
0.628358525075
0.616973815775
0.60473529608
0.591678988682
0.577844704722
0.66603000357
0.660435042089
0.653837080003
0.646255166109
0.637712002746
0.628232541779
0.617844493197
0.606579329011
0.594470344489
0.581553401233
0.567868115026
0.654094775031
0.648562374467
0.642038505941
0.63454215695
0.626095944248
0.616724723436
0.606456089808
0.595321368701
0.583353697279
0.570588757706
0.557065949565
0.641273410332
0.635808804599
0.629365214036
0.621961553738
0.613620341684
0.60436632329
0.594226964038
0.583233425301
0.571418668469
0.558818177459
0.54547111445
0.6276028287
0.622211174231
0.615853952885
0.608549995701
0.600321708124
0.591193710882
0.581193323961
0.570351526973
0.558701087397
0.546277271689
0.533118983122
0.613123866601
0.607810223022
0.601545346435
0.594347971757
0.586240377724
0.577247045432
0.567395133268
0.556715420903
0.545240463419
0.5330052903
0.520048524207
0.767166740675
0.761064577246
0.753865120847
0.745587601224
0.736255104308
0.725893070074
0.714529873318
0.70219794457
0.688931666891
0.674768200438
0.659748796115
0.765460746909
0.759366758878
0.752177015855
0.743910751606
0.734591045876
0.724243350207
0.712896027306
0.700581496694
0.687334127453
0.673191061483
0.658193525155
0.762622531526
0.756542177652
0.749368631653
0.741121133258
0.731822768927
0.721498973236
0.710178106069
0.697892568169
0.684676704978
0.670567627724
0.655606521722
0.758659762155
0.752598512389
0.745447657508
0.737226444081
0.727957957238
0.717667625226
0.706383793506
0.694138835629
0.680967063247
0.666905544141
0.651995405808
0.753582911694
0.747546250083
0.740424593493
0.732237194839
0.723007135227
0.71275983268
0.701523612311
0.689330811231
0.676215696487
0.662215279137
0.647370611776
0.747406024555
0.741399445964
0.734313503496
0.726167454324
0.716984371318
0.706789656998
0.695611609001
0.683482517744
0.670436594055
0.656510778403
0.641746030976
0.740145783253
0.734174791908
0.727131086062
0.71903392336
0.709906362572
0.699773783927
0.688664449126
0.676610590516
0.663646350185
0.649808583449
0.635138140105
0.731821821572
0.725891925399
0.718896978648
0.71085623391
0.701792728317
0.691731811452
0.68070169923
0.668734553357
0.655864433692
0.642128095077
0.627566258382
0.722457613357
0.716574311389
0.709634631467
0.701657813933
0.692666865103
0.682687094031
0.671746659599
0.659877639121
0.64711399573
0.633492367692
0.619053327846
0.712078955356
0.706247730419
0.699369802042
0.691464389582
0.682554457842
0.672665263997
0.661824897333
0.650065335835
0.637420430444
0.623926685938
0.609624507426
0.700714548553
0.69494085533
0.688131126546
0.680304550477
0.671484038339
0.661694782764
0.650964789636
0.639325921603
0.626811900984
0.613459081395
0.599307679918
0.688397112553
0.682686358565
0.675951218765
0.668210839089
0.659488063928
0.649808007554
0.639198577566
0.627691504284
0.615320364134
0.602121341175
0.588134443628
0.675161278676
0.669518814913
0.662864584287
0.655217678199
0.646600860006
0.637039150837
0.626560344191
0.615196020223
0.602979591431
0.589947053274
0.576138183771
0.661044414328
0.65547552113
0.648908434476
0.641362178304
0.63285941998
0.623425071926
0.613086796966
0.601876006558
0.58982593059
0.576972356318
0.56335480978
0.646087928747
0.640597794399
0.634123976245
0.626685417327
0.618304673512
0.609006532383
0.598818508943
0.587771826891
0.575899514325
0.563237130264
0.549823926651
0.801749468713
0.795485057882
0.788092594856
0.779591143758
0.770003702236
0.759355676409
0.747675490358
0.734995747891
0.721351076309
0.706778976003
0.691321173029
0.799998242426
0.793741875376
0.786358994127
0.77786867564
0.768293926153
0.757660150324
0.745995786379
0.733333424969
0.719707682903
0.705156044721
0.689720213395
0.797084565703
0.79084161513
0.783474724491
0.775002980436
0.765449402406
0.754839409742
0.743201427153
0.730568040992
0.716973850148
0.702456312464
0.687057092288
0.793015960432
0.786791858716
0.779447396119
0.771001695532
0.761477792633
0.750901115893
0.739300088584
0.726707280246
0.713157263798
0.69868745912
0.683339476159
0.7878027862
0.781602970084
0.774287409207
0.765875255601
0.756389562174
0.745855765988
0.734302285867
0.721761667709
0.70826844956
0.693860001494
0.678577862935
0.781458941291
0.775288893458
0.768008743037
0.75963767204
0.750198749249
0.739717417703
0.728222087041
0.715745271307
0.702321463739
0.68798797204
0.67278624855
0.774000977085
0.767866215318
0.760628018473
0.752305596703
0.742922030793
0.732502764912
0.721076192874
0.708674787114
0.695332984942
0.681088018277
0.665981235261
0.765448428924
0.759354499977
0.752164827149
0.743898644236
0.734579037635
0.724231445514
0.712884237241
0.70056983226
0.68732259955
0.673179680879
0.65818230244
0.755824747521
0.749777212778
0.742642645286
0.734440295483
0.725193246568
0.714926921365
0.703669654226
0.691453798574
0.678313641331
0.664286218749
0.649412616614
0.745155755342
0.739160180789
0.732087299767
0.723956370105
0.714790460798
0.704614967918
0.693458178374
0.681352364947
0.668331717463
0.654433150249
0.639697589483
0.733470255311
0.727532196394
0.720527565778
0.712475617505
0.703399393437
0.693324249641
0.682278411474
0.670294054969
0.65740525655
0.643648791198
0.629065405512
0.720801185514
0.714926164695
0.707996305587
0.700030845688
0.691052785191
0.681087425346
0.670162914368