/*--------------------------------*- C++ -*----------------------------------*\
| =========                 |                                                 |
| \\      /  F ield         | OpenFOAM: The Open Source CFD Toolbox           |
|  \\    /   O peration     | Version:  2406                                  |
|   \\  /    A nd           | Website:  www.openfoam.com                      |
|    \\/     M anipulation  |                                                 |
\*---------------------------------------------------------------------------*/
FoamFile
{
    version     2.0;
    format      ascii;
    arch        "LSB;label=32;scalar=64";
    class       volScalarField;
    location    "0.01";
    object      k_0;
}
// * * * * * * * * * * * * * * * * * * * * * * * * * * * * * * * * * * * * * //

dimensions      [0 2 -2 0 0 0 0];

internalField   nonuniform List<scalar> 
29767
(
5.61537348484e-13
1e-15
1e-15
5.98432846517e-15
1e-15
5.66569979739e-15
1.75624380932e-14
6.93109870726e-14
1e-15
1e-15
1e-15
1.47659102618e-10
1e-15
4.49320527023e-13
1e-15
1.6039222653e-14
1e-15
1e-15
1.04771851885e-15
1e-15
1e-15
1e-15
1e-15
1e-15
1e-15
1e-15
1e-15
2.54215637126e-13
1e-15
1e-15
1.13022966574e-11
5.82742435389e-11
1.74517629401e-15
2.42102426604e-10
1.57678166396e-15
1e-15
1e-15
1e-15
1e-15
1e-15
1e-15
1e-15
1e-15
1e-15
1e-15
1e-15
1e-15
1e-15
1e-15
1e-15
1e-15
1e-15
1e-15
1e-15
1e-15
1e-15
1e-15
1e-15
1e-15
1e-15
3.840361241e-11
1.68155799472e-11
1.86871825077e-12
8.85875772935e-11
5.19342096978e-15
2.61567951852e-10
2.91968896215e-11
9.07652004965e-14
8.17812042114e-15
2.64452247879e-14
2.39537184595e-09
3.50942290513e-15
9.42733973501e-14
1.66596802362e-14
7.51973489808e-15
1e-15
1e-15
1e-15
2.32760126816e-14
4.51861143697e-15
1.687746273e-14
9.36457298067e-10
4.54223211866e-12
1e-15
2.71630037633e-14
1.61815687113e-14
1e-15
1e-15
2.12739225832e-12
4.24642063355e-09
1e-15
1.04439545106e-15
1e-15
1e-15
1e-15
1e-15
1e-15
1e-15
1e-15
1e-15
1e-15
3.98578652661e-15
1e-15
1e-15
2.99701435792e-11
1e-15
1e-15
2.17743065912e-12
1.13686867957e-14
1e-15
4.83105489829e-12
1.18129609554e-14
3.2937455261e-15
1e-15
1.21507004926e-12
1.8316393928e-14
1e-15
2.86601714975e-12
1e-15
1e-15
1e-15
1e-15
1e-15
1.63997571586e-15
1e-15
1e-15
1e-15
3.99377331358e-13
1e-15
1e-15
1e-15
1e-15
1e-15
1e-15
1e-15
1e-15
1e-15
1e-15
1e-15
1e-15
7.19626973784e-15
1e-15
7.39740631642e-15
1e-15
2.22956482383e-13
1e-15
1e-15
1e-15
1e-15
1.15353591962e-15
1.35694931619e-15
1e-15
1e-15
1e-15
1e-15
1.52442934102e-15
1e-15
1e-15
1e-15
1e-15
1e-15
1e-15
1e-15
1e-15
1e-15
1e-15
1e-15
1e-15
1e-15
2.36007850133e-13
6.82571613058e-13
4.53541413819e-14
3.8275279219e-10
1.0049333031e-15
2.28114332477e-11
3.8099025222e-12
2.15589512039e-13
8.74359556214e-13
1.64489836648e-11
1.93962064271e-11
2.98476893949e-12
2.47908779758e-15
3.93969609193e-13
1e-15
2.9528013904e-10
2.46172355955e-15
2.05115087076e-13
1.83223309407e-11
5.32032505535e-14
2.62051415924e-14
2.09559724529e-10
1.57846412574e-10
1.12397920022e-09
5.76296637569e-14
3.0359487601e-11
4.28168378394e-12
1.49056781542e-11
6.74639356884e-13
2.28352750111e-14
2.86370177911e-10
2.36732298765e-11
4.3322164293e-11
2.32602949556e-12
1e-15
4.40305455595e-14
2.80751576748e-15
2.23664261717e-14
2.3642535736e-13
5.0017132457e-13
1e-15
1e-15
1.12286704602e-15
1e-15
1e-15
1e-15
1e-15
1e-15
8.60038101493e-14
1.48305365944e-10
3.18253503853e-11
7.11174817428e-09
2.50709563913e-11
1.41124838963e-12
3.96349531361e-14
2.56132609381e-12
4.33151941249e-10
1.53926367774e-10
4.44492581114e-11
5.36734560627e-10
2.00019719183e-11
1e-15
1e-15
1e-15
2.94803544769e-15
1.72770321136e-13
1.35263524509e-12
1.38283188721e-10
8.7668457586e-12
1e-15
5.92247814105e-15
8.6575346281e-15
1.04223728052e-11
1.55960790329e-11
1.45669930323e-10
1.12830000902e-11
1.56979535492e-14
3.27267128369e-12
7.48346233292e-14
1.50616558402e-15
1.66698673078e-15
1e-15
1e-15
1.05052483359e-14
1e-15
1.64391270801e-12
1e-15
1e-15
2.09972300121e-15
4.44794590808e-12
2.35353631184e-12
1e-15
6.30606622272e-13
5.93335232733e-15
1e-15
1.11308809235e-11
1e-15
2.48505054119e-11
1.00486450285e-12
1.41463774961e-13
4.54347276866e-11
5.06504833154e-12
3.26845011384e-13
1.50038716871e-06
3.68900614033e-13
2.66914786219e-09
1.00884474059e-09
1.71203354632e-09
3.4372810301e-11
2.02352858135e-11
6.69969484034e-11
1e-15
1e-15
1.1718484596e-10
3.66713374609e-08
1e-15
3.40778899704e-15
1e-15
1e-15
1e-15
1.04289309106e-15
2.63330078234e-13
1e-15
1e-15
1e-15
1e-15
1e-15
1e-15
1e-15
1e-15
2.9529088773e-08
0.000519655607185
4.54163502385e-08
1e-15
1e-15
1e-15
5.60149722737e-11
3.08638664356e-14
1e-15
7.8347447332e-13
2.54922078676e-10
1.12083240199e-10
8.43912323784e-13
1e-15
1e-15
1e-15
1e-15
1e-15
7.04113285803e-15
1e-15
1e-15
1e-15
1e-15
1e-15
2.87949755753e-15
1e-15
1e-15
3.09701639235e-15
1.76958170608e-14
1.825389779e-14
4.26734809163e-15
1e-15
1e-15
1e-15
1e-15
1e-15
1e-15
1e-15
1e-15
1e-15
1e-15
1e-15
1e-15
1e-15
6.40441205292e-15
1e-15
1e-15
1e-15
1e-15
1e-15
1e-15
1e-15
1e-15
1e-15
1e-15
1e-15
1e-15
8.44870413243e-15
1e-15
1e-15
1e-15
1e-15
3.85450376772e-12
2.68661449754e-11
6.93162619923e-08
1e-15
1e-15
0.0100948610622
1e-15
3.69636475051e-06
1e-15
1e-15
1e-15
1e-15
1e-15
1e-15
1e-15
1e-15
1e-15
1e-15
1e-15
1e-15
3.04591780087e-12
1e-15
9.81885091195e-12
1e-15
4.32488857396e-12
1e-15
9.74105750335e-15
1e-15
1e-15
1e-15
1e-15
0.000111713621782
6.32274440031e-10
2.11094890986e-11
7.79470795751e-12
7.68960360529e-09
1.12016103153e-10
7.95239071884e-13
1e-15
1e-15
1e-15
1e-15
1e-15
1e-15
1e-15
1e-15
1e-15
1e-15
1e-15
1e-15
1e-15
1e-15
1e-15
1.07358848431e-15
1.62344558128e-13
1e-15
1e-15
1e-15
1.2822472451e-12
1e-15
1.38205845924e-12
2.08069242188e-05
2.41032745946e-05
8.44892482584e-12
1e-15
1e-15
0.0126103413823
1e-15
1e-15
3.89630517385e-13
1e-15
2.23508572875e-15
1e-15
3.70944629395e-15
1e-15
6.91080051871e-13
1e-15
2.80793511115e-14
5.43967567789e-05
1e-15
2.37495425447e-10
3.33499223196e-14
6.81740226662e-15
1.12399068794e-13
8.95460390034e-15
1e-15
3.99236443225e-09
4.56913264069e-12
1e-15
4.12122743998e-15
9.35184600356e-10
1.36639033546e-13
1e-15
1e-15
1.94918574631e-14
1.46106080983e-12
2.17423324834e-15
1e-15
1.39998329761e-08
7.8582842156e-15
7.99816575008e-14
7.33671703401e-13
2.00907293518e-12
3.45585342788e-13
1e-15
1.32361005177e-11
2.00462965412e-06
1.17336466307e-10
7.26934075884e-05
0.000125693485828
2.69797403465e-09
1.6364116859e-09
1e-15
1.06801735097e-06
6.43322122474e-14
2.02173513344e-14
8.2777783956e-15
1e-15
6.47080848495e-11
1.93332275265e-14
3.18434286407e-07
1e-15
1e-15
1e-15
0.0069069630866
1e-15
1e-15
6.67050422059e-15
1.1531008296e-14
1e-15
1e-15
1e-15
1e-15
1e-15
1e-15
1e-15
1e-15
1e-15
1.34323526626e-15
1e-15
1e-15
1e-15
1e-15
1e-15
1.14017104599e-08
1e-15
1e-15
1e-15
1e-15
1.32468732984e-15
1e-15
1e-15
1e-15
1e-15
1e-15
1e-15
1e-15
1.7893231693e-13
3.59705440529e-08
1e-15
1e-15
1e-15
1.68156827845e-08
1.05841555959e-12
1e-15
1e-15
1e-15
1e-15
1e-15
1e-15
1e-15
1e-15
1e-15
1e-15
1e-15
1.38913782936e-15
1.0356857299e-14
8.54099780865e-15
1.14850626708e-14
5.36395203142e-14
3.47552687694e-14
1e-15
1e-15
1e-15
7.84343235417e-15
1e-15
1e-15
6.32319329021e-15
1e-15
1e-15
1e-15
1e-15
1e-15
4.94936065832e-12
1e-15
4.88000441114e-14
0.000235774949516
4.84915382265e-09
8.89330432981e-05
1.16154979328e-13
1.40086489211e-11
1e-15
1e-15
1e-15
0.000369868454994
0.0106283437702
8.37511047927e-13
1e-15
1e-15
1e-15
3.58365427077e-15
2.26155223712e-11
1e-15
1e-15
1e-15
0.000453011018838
0.000625547676169
1e-15
1e-15
1e-15
1e-15
1e-15
1e-15
1e-15
1e-15
1e-15
1e-15
1e-15
1e-15
1e-15
1e-15
1e-15
1e-15
1e-15
1e-15
1e-15
1e-15
1e-15
1e-15
1e-15
1e-15
1e-15
1e-15
1e-15
1e-15
1e-15
2.31364170054e-13
2.00964163088e-13
1e-15
1e-15
1e-15
1e-15
1e-15
1.24849079026e-08
2.42595441784e-15
1e-15
1e-15
8.25615010129e-07
3.67762179252e-14
1e-15
1e-15
1e-15
1e-15
1e-15
1e-15
1e-15
1e-15
1e-15
1e-15
1e-15
1.13958982744e-15
1.16447822027e-13
1e-15
1.23547678024e-15
1e-15
1e-15
1e-15
1e-15
2.84269710641e-15
1e-15
1e-15
1e-15
1e-15
1e-15
2.44811889924e-14
1e-15
1e-15
1e-15
1e-15
1e-15
1e-15
1e-15
1e-15
1e-15
1e-15
1e-15
1e-15
2.59670397791e-13
1e-15
5.73008051957e-14
1e-15
1e-15
1e-15
7.5785370158e-12
1.00928880844e-15
1e-15
1e-15
1e-15
2.02260796912e-14
1e-15
9.2462573958e-13
1.18745676804e-13
1e-15
1e-15
1e-15
1e-15
6.89546410609e-08
7.27636281511e-14
8.14326760606e-15
1e-15
5.6219399237e-13
1.03468656249e-15
1e-15
6.20027511818e-09
4.42834165445e-09
1e-15
1e-15
1e-15
1.42430414662e-12
1e-15
9.00256159434e-14
1.0625583776e-09
3.52118134828e-12
1.83443920489e-13
3.59625503737e-08
4.77634543903e-08
1e-15
1e-15
8.44726987081e-15
2.46198904961e-10
7.66676415874e-13
6.20393942442e-14
1e-15
3.5150715689e-09
1.88334759099e-09
8.28927821666e-14
1.08008232253e-08
7.89364406773e-10
4.00346472976e-15
1.50306410467e-11
1.7427172906e-08
3.14606049459e-10
4.64600853481e-11
1.37052434524e-13
5.41876605894e-09
5.35731597035e-15
5.23473753132e-05
8.6663333082e-08
2.09422757976e-12
9.77748567935e-14
1.99986347563e-08
6.24411509913e-14
2.59931634861e-12
1.19190138105e-12
1.36322410085e-06
2.16342790888e-13
5.48319826019e-15
3.12642680321e-08
8.39639368311e-15
1e-15
1e-15
1.90125690553e-13
1e-15
3.33146768738e-15
5.57738903296e-13
2.93521164077e-12
1e-15
3.99752008002e-13
3.03419410678e-13
1e-15
8.43247480511e-14
1.55748911337e-13
1.29157419928e-13
1.06431854484e-11
2.19196673712e-10
3.93438040548e-13
1.38245627388e-06
1e-15
7.19012299878e-15
1.85500292151e-11
2.99891436966e-15
3.16138233973e-13
1e-15
5.393492427e-12
2.18953810148e-15
9.20468107935e-08
1e-15
2.19129366511e-10
7.80885826926e-08
8.22482747627e-13
9.22508632882e-08
4.43737132646e-09
0.000199308698202
8.85011855463e-09
0.000320196794375
0.000257253252111
6.14886145287e-05
0.000258169210201
1.01056934171e-08
0.000307226887629
2.00556998587e-06
8.94612734305e-09
4.02843405345e-12
1.56457405702e-11
2.17504533281e-10
1.3343774838e-07
4.19398065495e-13
9.20807000219e-12
2.13895336218e-09
1.5454474224e-13
1.60635720252e-05
2.35180033901e-11
0.00536909585245
0.00424980889222
8.1010822474e-07
0.013774917599
0.0156480868653
0.00394631007334
0.00728816511477
1.34970174766e-11
0.000585970207386
0.0175799962881
1e-15
9.83407711815e-05
5.19303255863e-13
3.04213436483e-13
1e-15
1.85847679805e-11
0.017076616768
4.93106283017e-12
3.6766769781e-13
2.96859044004e-14
1e-15
1e-15
1e-15
1e-15
1.51584386406e-14
4.08066722472e-15
1e-15
1e-15
4.0002296274e-13
1e-15
5.27074817761e-13
1.66587977251e-14
1e-15
1e-15
1e-15
2.26664579627e-12
4.00947320163e-14
1.83177697988e-15
1.05634654067e-15
1e-15
9.1112512251e-12
1.23955298638e-09
6.96702688096e-09
1e-15
2.11691140728e-12
8.31748463119e-09
1.96167285338e-10
5.50379036953e-13
1.09212165156e-07
8.40910571514e-11
4.82246571848e-13
1.70099912384e-11
6.66139894481e-14
5.03305759627e-14
2.62032384652e-14
3.61049363223e-10
2.4578713166e-14
5.52470970848e-12
6.57542119716e-11
4.92771684824e-15
5.82319126845e-14
2.534210218e-13
8.0606221623e-14
1.7320023309e-13
1.7111528156e-14
1e-15
1.45620253485e-14
4.51091651476e-12
2.4609401067e-11
2.33659821937e-14
5.35749975662e-12
1.47237862724e-12
2.94301585083e-15
2.74878529244e-12
5.88127003382e-12
3.1163065162e-12
2.71815305146e-11
3.1710681117e-13
4.0601194554e-12
7.06421976636e-11
1.23391927606e-13
8.73931136667e-13
1.62258843068e-10
2.82177107552e-12
8.50190802332e-12
9.06851987806e-14
1e-15
1.55000253761e-15
8.30610791782e-14
1e-15
1e-15
8.72571076706e-15
1e-15
1e-15
1e-15
1e-15
9.56089346793e-14
8.10185748462e-13
1e-15
3.95030270103e-11
1.01050012079e-09
1e-15
6.66594415492e-13
3.53904099793e-10
1e-15
1.28903430925e-15
7.30975821217e-10
2.83591400342e-12
9.69688627127e-13
9.46702146959e-10
1.19370432348e-11
3.39396290637e-12
1e-15
2.00738446951e-15
1e-15
1e-15
6.28525851212e-12
1.75628432824e-13
4.14660050629e-14
1e-15
5.4414136753e-14
1e-15
7.46350294701e-08
2.51065784671e-07
3.40007811436e-08
4.6529220681e-15
6.79860682368e-12
3.92613079642e-07
2.89492408995e-10
3.08574426018e-14
1.23170081849e-08
2.643903254e-07
1.02403953084e-09
2.93954867129e-08
1.3177733994e-05
3.36459307174e-10
4.48695073065e-08
2.00214791242e-05
4.74260684234e-09
1.55011916268e-06
1.12907891764e-06
2.27906382091e-05
5.28924693468e-06
1.05691298118e-08
7.71422539384e-11
1.75359480538e-11
1.22794214784e-08
8.85620715403e-08
3.09748779808e-11
2.17251757649e-10
1e-15
1e-15
1.77255405519e-15
2.62176172943e-13
5.22972506076e-15
8.63627768755e-13
6.19232272952e-14
1e-15
1e-15
1e-15
1e-15
1e-15
1e-15
1e-15
1e-15
1e-15
1e-15
1e-15
1e-15
1e-15
1e-15
1e-15
1e-15
1e-15
1e-15
1e-15
1e-15
1e-15
1e-15
1e-15
1e-15
1e-15
1e-15
1e-15
1e-15
1e-15
1e-15
1e-15
3.49954963808e-14
1e-15
1e-15
1.18937157367e-13
5.3814558341e-15
2.06097761374e-15
6.78466390458e-13
1e-15
1e-15
1e-15
1e-15
7.25580753396e-15
1e-15
1e-15
1e-15
1e-15
1e-15
1e-15
1e-15
1e-15
1e-15
8.36234025207e-15
1e-15
1e-15
1.9731592779e-13
1e-15
1e-15
1e-15
1e-15
1.00755556246e-15
7.16207582248e-14
0.0057714068581
9.04083398985e-06
0.00332708657626
0.00512326260294
5.05000489954e-13
1e-15
4.99152748005e-14
1e-15
1e-15
1e-15
1e-15
1e-15
2.52003761878e-15
1e-15
5.3556301183e-12
1.32095147549e-14
1.60282071697e-11
6.58921610976e-15
1e-15
6.21709771101e-15
2.89568074083e-07
6.6442758779e-15
1.73170612479e-12
3.5485977471e-07
3.11315761069e-14
1.41190896577e-14
2.26939825756e-09
1.45056511315e-10
1.05922637149e-07
3.95310534855e-09
4.97218261424e-10
1.04340428988e-10
1.50093352093e-06
6.56152310569e-09
0.0224154421355
5.96491948073e-05
1.33391153173e-09
2.79143480889e-09
0.000832801776444
1.22980504617e-08
1e-15
5.92758649568e-15
1e-15
1e-15
1e-15
1e-15
1e-15
1e-15
1e-15
1e-15
1e-15
1e-15
2.41874688883e-15
1e-15
1e-15
3.67584275822e-14
1e-15
1.70227224756e-12
2.26488509055e-10
9.92394541393e-14
1e-15
5.16863744998e-14
1e-15
1e-15
1e-15
9.79368482097e-06
0.000346716753705
2.10822179925e-06
6.81101240484e-06
1.90925130271e-06
0.000488158246864
3.68667159691e-13
1.11224580243e-15
1e-15
1e-15
1e-15
1e-15
2.79717863228e-14
0.000159547657246
1.05469960391e-06
4.90606296029e-07
2.80764410834e-06
9.31861921486e-15
1.13213567232e-12
1e-15
1e-15
1e-15
1e-15
4.91057140743e-15
5.45317420931e-10
1.67728327509e-11
7.92038758009e-12
1.68846513514e-12
3.94639053789e-05
3.95059233207e-07
1.89061154533e-13
3.21831605206e-10
1.96811808564e-08
6.94199473724e-05
2.92671046503e-11
5.10911081767e-07
1.15943016024e-08
5.43641606788e-11
2.95965085668e-12
2.55817669133e-11
5.25352570906e-07
2.80346844232e-09
0.000216350092649
0.000712688983525
0.00239968906485
0.00432175465144
4.63138277427e-08
0.00325506497088
0.000594685497721
0.000556421343571
1.82215760553e-10
0.00048971782631
3.73490341321e-05
0.000111149081119
6.70951220458e-11
4.66320471646e-09
7.85062484276e-08
2.59905496444e-08
4.68937451292e-07
4.45268482784e-05
1.51036129294e-10
4.13318672735e-11
6.51033475137e-05
1.71580394074e-11
4.42680765047e-12
6.33140508923e-10
4.26714283236e-05
5.43899711321e-11
4.93210055811e-12
3.85496046721e-12
6.15584219144e-15
5.45397659652e-08
3.98691836116e-13
1.46218836221e-12
1.86193930645e-12
3.37563328939e-14
6.0947609671e-13
7.37692635894e-13
2.25886780521e-15
3.2992299867e-09
1e-15
1.70211281051e-13
4.62347058394e-14
2.51490356811e-09
3.13425299815e-15
2.57678404357e-15
1e-15
9.41695906185e-11
1e-15
1.38785797147e-05
3.16837688694e-05
0.000394596187674
0.00174293000711
0.000670735036932
3.36654621568e-11
0.0374183889568
6.4407469235e-06
1.4967879573e-09
0.0416539826503
1e-15
1.11891699585e-05
6.63583812707e-15
1e-15
2.77504944055e-13
3.90901040865e-13
1e-15
1e-15
1.12404699877e-14
1.91868777882e-13
1.79463471728e-15
7.75877554577e-12
3.25629542702e-09
5.98083293208e-10
0.0231689967727
1.91102643347e-08
0.0104710328606
3.07196066345e-08
1.00278565464e-10
0.0192799809916
2.3239915405e-05
1e-15
7.89600185331e-15
2.61720162248e-11
5.75231629293e-11
1.44141893273e-11
1.97601801568e-10
2.37139282608e-13
9.15770521231e-14
1.27971552003e-14
1.13732013418e-11
2.96373173529e-11
8.18463584064e-10
5.68450686304e-14
7.40390165393e-09
2.45656006301e-13
1e-15
5.43155317579e-11
3.40516674869e-06
4.96667190919e-08
9.17531327713e-11
3.46912471084e-07
4.96816363426e-05
1.04163958662e-11
1.39730897926e-12
1.09195177242e-05
6.43588999115e-11
0.000126368610256
0.000474767582459
3.91324373949e-10
1.71720954025e-11
0.00075322237029
5.10936151911e-11
0.000737732221877
0.000408981124963
1.56458473662e-08
1e-15
4.58591521558e-09
2.43385201426e-14
1e-15
8.28916855392e-10
9.96453825972e-09
2.50820628091e-07
1.94201760157e-10
2.35704162152e-11
6.3934880856e-05
0.000141686920054
4.50697416701e-14
2.06617632416e-05
9.21204995712e-13
6.34101016851e-12
8.42649444287e-05
0.000136243875139
1.57466285795e-08
3.76924936297e-08
4.95883536389e-15
4.47239794379e-14
1.012850239e-14
6.26796700877e-11
1.49698605366e-06
2.52625413464e-11
1.7263148281e-11
8.44809807128e-15
1e-15
1e-15
5.70182611543e-11
2.1152283005e-10
2.41584644394e-07
2.40816455964e-10
0.000910919902037
1.37182470901e-10
2.3148213488e-12
6.25905731225e-06
0.000695525214532
3.64634217357e-09
6.107515195e-13
8.19927395327e-15
4.50654676957e-09
2.91666178409e-13
5.83257366326e-12
2.42152128812e-10
1.02893467551e-05
7.22816839642e-12
5.0806830299e-09
0.000193639389146
1.08897621166e-10
5.08370819623e-05
0.000235883661467
2.23400338969e-05
2.79220626349e-09
0.000151944491195
6.27755167415e-10
9.52359741342e-10
3.95006359201e-05
8.81962768452e-05
2.39896841964e-10
3.91241833386e-12
4.97217831804e-10
1.29716381703e-10
2.16391129005e-12
1.94032801196e-09
8.49303666805e-11
4.56324584423e-07
1.90307687769e-11
3.25671055899e-13
0.0163280594264
2.36838633932e-06
1.77284065009e-06
0.000181798016239
6.5700553987e-07
0.00882994375144
0.00146987915679
4.71861697001e-08
4.37049092792e-14
2.49100509672e-13
9.89578917257e-05
3.46607755061e-13
9.97927682845e-05
1.27345767739e-08
0.0264574993599
0.000486214673795
4.42175057922e-06
1.59978896607e-11
3.61699625577e-12
0.000753293599886
1.45361847121e-11
0.00066955789563
0.000326377611283
0.00252818266718
9.49258601299e-06
7.24817233092e-07
4.71326461942e-05
0.00627829465332
4.17552035192e-13
5.28508694299e-11
3.40459325178e-06
1.52017365081e-10
1.35276182119e-11
4.1403086267e-12
0.000760093336947
8.38700071784e-10
5.21874409941e-15
1.35582165576e-12
1.20280654977e-06
5.71759470469e-13
1e-15
1.10186616098e-10
1.30778723712e-07
4.28971101156e-14
1e-15
8.14144231319e-14
1.42238783537e-10
1.02491656174e-11
5.36979091192e-14
3.90287292527e-13
1e-15
1.11366736067e-06
4.22814758027e-08
5.0792498638e-13
5.68402816985e-12
1.8689317462e-12
5.56259247658e-08
3.54541060024e-07
6.8355922155e-11
4.65475523908e-07
1.14867321075e-11
7.27598116148e-14
1e-15
1e-15
3.36761399796e-07
6.08561460054e-15
7.43813787604e-12
2.29280776143e-15
4.5879496761e-14
1.75958382936e-15
7.53400560441e-13
2.02074211697e-12
2.63769178369e-12
1e-15
1e-15
1e-15
1e-15
2.73066285506e-14
1e-15
1e-15
2.84457019536e-13
1.93817768134e-15
1e-15
1e-15
1.80522239801e-14
1.81746543892e-14
1.93540938292e-11
1e-15
1e-15
1e-15
1e-15
6.62872234584e-14
1e-15
1.2855690729e-12
1e-15
1e-15
1e-15
1.70425574027e-15
2.64578309881e-08
1e-15
1.67653303702e-09
9.45801455721e-14
1e-15
1.44228532016e-15
1e-15
3.25873267925e-13
1.42212933708e-08
7.46502815344e-11
3.21945123643e-14
2.76570700866e-08
1.49584374564e-13
1.46874700881e-15
3.71089420435e-10
2.62956295701e-06
1e-15
1.77748685258e-15
4.14601153103e-07
2.43123577983e-11
1e-15
2.69112294213e-12
5.50008616915e-15
3.58573200679e-13
1e-15
1e-15
1e-15
1.06304327784e-14
5.8176506017e-12
5.61639009377e-10
1.67956139739e-08
1.4881986269e-07
7.42424014184e-09
7.15469249303e-07
6.89434676031e-10
1.46337945692e-08
4.20889909617e-09
2.78715091065e-11
2.2988832868e-13
8.11287135419e-13
2.00219506997e-09
0.000315164899489
6.36658758303e-11
1.50289984647e-12
0.000333916038731
1e-15
4.72500509325e-14
1.0881358999e-10
1.48811993553e-09
9.18441497803e-12
1.2954318759e-09
6.64020173687e-06
0.00056935021438
0.00200403928407
0.00342491957238
1.13472891614e-12
0.00227363441263
0.00352920432771
0.00031902600384
0.00197732432829
4.80464553325e-06
1.13635619683e-11
0.00182216429677
4.16602342626e-10
1.9221961155e-13
1e-15
0.00254452231187
3.15306616872e-13
1.7943554451e-12
0.00422246656459
1.35210311343e-15
1.0225251625e-15
1.45079506942e-14
6.02676260139e-13
0.00618314985654
8.50061012566e-09
1.59560802948e-14
1e-15
1.05424416971e-12
1.39700502184e-11
0.00470547590799
8.07228074301e-09
0.001040277771
2.14165097778e-15
1.2449295801e-10
0.00233477337475
3.67819161412e-13
0.00529455100144
5.84782190943e-09
9.33178611992e-12
3.22364451492e-12
1e-15
1e-15
1e-15
1e-15
2.55651556254e-14
3.24311285248e-14
1e-15
1e-15
8.55183661247e-11
3.32514773386e-15
3.37080821945e-15
1e-15
1e-15
1e-15
1e-15
4.22055837886e-11
4.84041575125e-15
1e-15
1e-15
2.03193041673e-11
5.87964290238e-11
5.67512620999e-10
1e-15
1e-15
1.61678308945e-13
1e-15
0.00031338562099
6.89453130168e-10
1e-15
1.85929331042e-15
3.89045274049e-10
0.000361235329504
1e-15
2.91773691118e-09
1e-15
1.85154963626e-15
2.40075410671e-14
1.54969776933e-12
5.18954541244e-12
1e-15
1e-15
0.000116120420608
3.75319081661e-05
6.01039700627e-11
1e-15
1e-15
8.68646350675e-15
1e-15
1.68133423484e-13
1.43676064886e-15
1e-15
8.68988844005e-11
3.74398672609e-13
6.77690521301e-10
1.03603248904e-13
2.44677477058e-09
5.87629463835e-13
3.73969800247e-13
1.20895094639e-09
5.31887815129e-15
1.7608717057e-12
1e-15
1e-15
1e-15
1.81663596441e-15
1e-15
1e-15
1e-15
1e-15
3.64073924528e-15
1e-15
1e-15
1e-15
2.32123432103e-15
1.03125809563e-13
1.81654203962e-12
3.22656610716e-13
1.80715425151e-09
1e-15
1e-15
6.98201278109e-14
8.39580569252e-14
6.28566862509e-11
1e-15
1e-15
1e-15
1e-15
1e-15
1e-15
1e-15
5.04426679314e-13
1e-15
1e-15
1e-15
1e-15
1e-15
1e-15
1e-15
1e-15
1e-15
1e-15
1e-15
1.82121853228e-15
1e-15
1e-15
8.09112210599e-15
1e-15
1e-15
1e-15
1e-15
1e-15
1e-15
1e-15
1e-15
9.88469200377e-15
1e-15
1e-15
1e-15
1.4534529626e-14
1e-15
7.65324843419e-14
1e-15
1e-15
4.62823657806e-15
1e-15
1.46485865882e-14
1e-15
1e-15
1e-15
1e-15
1e-15
1e-15
1e-15
5.41976383072e-14
7.60447043719e-15
3.16111787383e-15
1e-15
1e-15
1e-15
1e-15
1e-15
1.94126926224e-15
1.43378290541e-14
1e-15
1e-15
1e-15
1e-15
2.17314498021e-12
1.35574230694e-12
3.54974310147e-12
2.27735508346e-13
1.264026251e-13
1.52706397724e-13
1.03023181752e-13
2.28084185811e-15
4.12667421251e-13
1e-15
1e-15
1e-15
1e-15
1e-15
1.0785375368e-14
1e-15
2.75051578648e-15
1e-15
1e-15
1e-15
1e-15
6.9386150075e-15
1e-15
3.44940811569e-12
1e-15
1e-15
1e-15
1e-15
1.38331681338e-14
4.59728886853e-14
2.36940874303e-12
1e-15
7.31664720389e-14
1e-15
1e-15
5.09233768706e-12
3.90349051525e-09
1.57589394616e-15
1e-15
7.42503202321e-15
2.48567603044e-13
4.51265990677e-13
2.53986239666e-11
1e-15
9.88448346072e-14
1.71386902531e-15
1e-15
1e-15
1e-15
5.97932230569e-13
2.34980972356e-09
2.11882912343e-11
1e-15
6.37733844271e-15
1.30038251376e-13
3.80754673406e-11
4.00380138129e-12
5.69020781007e-12
6.35904302556e-09
2.5854973313e-13
1e-15
1.28811546474e-14
2.4986255369e-15
1.33002243993e-10
1.04399011478e-11
1.25769489664e-09
1.20273557753e-12
7.54029443311e-11
7.64102965767e-13
6.91587553546e-11
2.15399967646e-08
2.5395261574e-07
1.99198248554e-06
1.54091012984e-11
6.61521251689e-12
1.36275755015e-05
1.16876814513e-07
2.51724434288e-11
3.70631039206e-06
7.229739745e-06
3.53200101837e-12
1.68155664383e-05
6.64297751598e-09
2.26107442371e-11
9.2556005746e-13
0.0182173696775
1e-15
0.000644149056185
1.33053238594e-09
4.88482353108e-07
6.66818547574e-10
1.61387050199e-14
1.0592567144e-12
4.34929563151e-09
7.08782683891e-15
4.59257557844e-05
0.00492833971743
0.00165919936122
0.00297594522011
0.00111760484207
0.00713574833635
0.019468585381
0.0156376193683
0.00872506180079
4.9177435329e-07
1.20333997382e-08
2.88971278629e-15
1.46838881394e-05
2.89650713847e-08
1.94571093889e-13
9.39856780261e-05
4.28047562603e-08
4.32290430082e-14
2.0819553624e-13
7.24609156751e-06
3.20538478623e-15
5.99883487307e-10
8.94177471523e-05
0.00599232223693
0.000580034765673
0.00856361355025
3.30189707061e-10
0.023044622083
1.41963023947e-06
1.06457512096e-08
1.50970495896e-05
3.86722955314e-05
0.00044193165682
0.0166982473325
4.58696815262e-09
0.0178746813195
0.00627213081361
0.00100864608448
0.000271308869287
4.0548723353e-10
4.87926086819e-05
0.00087705233408
2.1346995499e-09
6.08076482243e-10
7.12258859422e-15
3.4757604757e-07
2.72028482367e-11
3.24318635639e-14
0.000133078853324
2.71335036899e-09
7.4657472473e-11
4.61556044605e-14
1.87547811252e-07
3.47565014818e-13
3.46056510711e-11
2.2035568757e-05
1.04224444118e-11
6.71699475833e-14
4.24713830435e-08
3.01743383089e-07
1.69171252762e-14
1.37469455939e-13
0.000180934468102
7.0247625697e-10
0.0281882762594
0.0397867006532
3.36349099514e-10
2.46290070699e-10
0.0100422537033
2.71008150831e-09
2.7066379426e-09
7.9746156542e-05
1.0346025748e-13
1.09492319215e-06
9.37792318322e-12
2.78830965542e-11
0.000141526281707
8.95582167124e-10
2.46836766621e-11
0.0318863002739
9.885873993e-08
6.31104522748e-09
3.17379119994e-14
0.00047177743418
9.09668089091e-12
1.15648288228e-06
4.75810824157e-13
5.82950883515e-06
4.79074422216e-11
2.62660899225e-11
6.4742805778e-06
1.18495829839e-10
1.15470376293e-12
1.6590080266e-05
2.10441163768e-06
7.63874106036e-13
2.06026300576e-12
3.77713039449e-05
7.98114659513e-09
8.29700521438e-06
2.45563101787e-10
6.62989718221e-08
2.15069548086e-09
2.06875957233e-05
1.24404455393e-07
9.03068589064e-10
1e-15
2.57396118119e-13
1.51369624303e-14
5.62654401927e-09
3.13045812337e-07
2.45656941517e-09
9.93095567537e-09
0.00173594999049
4.84463702512e-08
9.54515190011e-05
7.62753521944e-05
0.000263847045454
0.00256274354144
0.000315361312659
0.000364628219598
0.00249900550359
0.000156117680819
0.000997704439302
0.0029195997161
0.0029612168923
0.000400917371285
0.00132701324436
4.20030577455e-05
0.00292847759513
3.25334917938e-08
0.000939399985034
3.09539420147e-07
0.00223414958112
0.000188561458104
0.000604821797031
0.000941724535103
2.70067753801e-08
8.13782552228e-10
2.80920128381e-12
4.38612298732e-11
2.48842558969e-09
1.38352194279e-05
5.78440414195e-12
2.18941160886e-08
6.50139104153e-08
3.16465879652e-06
5.41712754781e-07
5.75090806911e-08
0.01885953497
0.00600882618254
1.82740474646e-08
1.03902505609e-10
7.85057630333e-14
2.19167826788e-11
5.42178158588e-06
2.9667504188e-05
1e-15
3.52613967559e-11
1.02969567459e-08
2.53921934175e-06
9.78094940218e-07
1.22991080257e-08
0.000426931596557
3.92718244871e-14
1.46589587654e-07
5.14966201801e-09
0.000161210338187
0.000786067550959
3.98565661709e-07
3.790584188e-06
1.40981078023e-06
0.000233641751502
4.51441975752e-05
9.55111289431e-08
3.2431651444e-06
1.05803783681e-07
2.24605763109e-11
9.88437287523e-12
3.90691266145e-10
3.12127022692e-09
3.9570611105e-09
3.45046188147e-09
3.59426274231e-07
2.29615683604e-08
1.35346433779e-10
1.31265928106e-08
1.10142597912e-11
3.03260089843e-15
1.09303847955e-13
2.87866474374e-13
3.10565030152e-10
1.75265644307e-05
7.61158836696e-07
1.19400590655e-08
9.06300850062e-05
8.38383396941e-12
5.38253661577e-09
2.64804211988e-09
8.69581616558e-06
6.34418836478e-11
1.79292879486e-09
0.0315879258966
5.81501070151e-05
0.0245566255297
7.90565306463e-08
6.93070118152e-08
3.16876703026e-06
8.51896995798e-09
1.34249154606e-07
3.00224948773e-06
3.57102425487e-08
1.83858792e-06
3.43519196646e-14
7.75595775676e-07
7.30089851154e-12
1.38707254358e-09
1.57543077475e-09
1.2426776272e-09
0.0155608157265
2.90904158682e-06
1.59636462807e-08
2.9637919363e-07
3.0693638918e-05
5.20191562471e-11
0.00225039762062
0.000411088052973
1.46293419397e-11
0.00212865297241
0.00224099089654
0.00214935798908
5.49524947413e-05
0.000755499147892
3.91234323835e-08
2.92218521532e-08
1.77478483439e-13
7.87971911433e-06
1.24463214359e-10
1.88330280439e-15
7.12427806754e-08
0.00298171878355
0.00177044173622
0.000708041612202
0.00095441578178
0.00320327619829
3.35457088519e-08
8.16265212896e-08
1.0106616819e-14
3.54711939795e-14
0.00300027039757
1.79673512852e-05
9.81013152402e-07
1.70909891593e-06
7.48901138259e-08
2.48183404475e-05
0.00329281469501
0.00700908355783
0.00042132903853
0.000982656346519
0.000101395240159
1.70640535304e-05
6.93004746975e-08
4.9841829864e-05
3.12371035371e-05
0.000112694775149
0.00263247751595
3.19492241116e-05
0.00123804783351
3.82830258492e-05
2.36326277053e-06
1.90959235763e-07
1.24957708145e-06
2.18386845738e-06
1.45016177596e-07
4.14060791437e-09
2.52280067719e-09
6.98278923764e-09
1.475597459e-12
0.00515737899072
0.00385460723996
0.0045355807704
0.00669671468675
3.10962192102e-05
5.55294225813e-09
1.54650780689e-05
2.26724799818e-07
0.00120959945721
0.000553907024818
0.00737920779204
5.66437097979e-05
1.2792241529e-05
0.000109560808466
4.91691770892e-09
0.000123342340545
1.31023146076e-10
2.14121502456e-10
6.17079334181e-09
2.97778434872e-11
8.43045868215e-05
3.05109166289e-05
8.25587037997e-05
3.81572957018e-07
0.00440277517621
0.00369988478757
0.00175809943676
0.00747576378165
0.000134481725335
0.00375713593427
0.00555745828579
0.000456174480699
0.0042386501953
0.00320707401265
0.000544933564889
0.00642724791854
0.000150728510891
4.02771495132e-08
1.60443214671e-05
0.000116167820443
0.00535296632562
0.0013698112593
0.0078902509869
0.00736083505396
0.000164321031725
0.000148494403933
0.00103838031536
6.59341114163e-06
1.27875054433e-09
0.000137057988163
2.14806373874e-09
3.04957837691e-05
2.52654318928e-09
3.22919860011e-12
1.74564405712e-09
1.33510433253e-05
1e-15
1.12199742285e-06
0.000153793985005
3.6495117442e-05
3.09359764618e-05
0.000472168210781
0.000307495338867
0.000541581117044
4.7600420618e-10
2.09342042949e-08
7.36839597025e-08
0.000316240748678
1.61962095234e-08
0.000479789864139
1.63278524429e-05
8.39556083412e-05
0.00011106383358
1.32581628316e-05
0.000137731458444
0.000124472552933
0.000206150180059
0.000138177551474
0.000224959084547
5.83543281074e-05
0.00243644497922
0.00106220585732
0.000965947474191
7.90528250235e-05
0.00061053835434
0.000244004210545
0.000112407418924
2.19569910919e-05
0.000389905333629
2.00751234703e-08
9.56054292108e-08
4.54606681007e-09
8.31343489275e-08