/*--------------------------------*- C++ -*----------------------------------*\
| =========                 |                                                 |
| \\      /  F ield         | OpenFOAM: The Open Source CFD Toolbox           |
|  \\    /   O peration     | Version:  2406                                  |
|   \\  /    A nd           | Website:  www.openfoam.com                      |
|    \\/     M anipulation  |                                                 |
\*---------------------------------------------------------------------------*/
FoamFile
{
    version     2.0;
    format      ascii;
    arch        "LSB;label=32;scalar=64";
    class       surfaceScalarField;
    location    "0.01";
    object      meshPhi;
}
// * * * * * * * * * * * * * * * * * * * * * * * * * * * * * * * * * * * * * //

dimensions      [0 3 -1 0 0 0 0];

oriented        oriented;

internalField   nonuniform List<scalar> 
87017
(
1.90803924426e-10
-2.12222595204e-07
-3.11296353703e-10
2.89371810307e-07
2.12371117241e-07
-1.72639868077e-10
1.09362885886e-10
-5.53199184189e-08
5.54058453292e-08
5.53538297916e-08
5.53525826026e-08
-5.55777538181e-08
-9.10824081963e-10
3.05903669405e-10
3.0135115459e-10
3.63133338648e-08
2.12405953313e-07
7.62258219699e-10
7.46439383217e-10
-2.12969667898e-07
1.35632972057e-07
-2.0326229793e-09
7.43778386067e-10
7.11255472194e-10
5.52530198273e-08
-7.18960136651e-10
2.6371021618e-10
1.83222374861e-10
4.08656119183e-08
-1.3093181786e-09
4.09496124425e-10
-5.51497959621e-08
-5.54362128813e-08
2.11916968912e-07
2.11648750676e-07
1.26784192728e-10
3.5494349595e-10
-5.03863286427e-08
-5.05886733693e-08
2.12270585642e-07
6.13615725522e-10
4.04628829987e-10
1.73566098148e-07
-1.60307147191e-09
5.81018243764e-10
4.25912567562e-10
2.12275141095e-07
2.1211851285e-07
-1.14943551137e-09
5.50977733934e-08
-5.89160681797e-10
-1.33954535656e-08
-1.34949516147e-08
1.77065323673e-10
6.2826472071e-11
4.55101230493e-08
3.01497531668e-09
-1.97498430951e-09
-2.17962544141e-11
1.92442469746e-09
-3.01154884488e-09
2.52797008017e-11
1.05614509937e-11
-5.35220255139e-12
3.8440445415e-11
-1.72674093776e-09
-3.03409859831e-09
-5.53619825524e-11
3.05214516629e-09
1.74850840574e-09
1.55479465938e-11
2.02019793343e-09
-3.12810650339e-09
-3.62595224234e-11
3.1726426943e-09
-2.04163763709e-09
1.31630351763e-11
2.32304104377e-09
-1.0461249455e-10
3.30380623724e-09
-3.28211480175e-09
-2.31951325596e-09
7.93932712482e-11
-4.41591080645e-11
1.99162598346e-09
3.08285218889e-09
1.48119590024e-11
-1.21459541586e-12
-1.09396837715e-11
2.19650600676e-12
-9.17227823009e-11
3.23953634336e-09
-3.22266933666e-09
2.3190537184e-09
7.88431009674e-11
-8.96973172062e-12
-1.97762360438e-09
-3.12587521562e-09
9.37773881338e-12
-3.08354964806e-09
-6.40829317292e-11
3.11243628359e-09
5.1428772729e-11
-1.74297341429e-09
-1.65730058296e-09
-6.94258934375e-11
-3.01619555441e-09
1.65352519751e-09
5.52982349834e-11
-1.90477543934e-10
-1.50201308927e-09
2.36422603268e-10
3.0965978491e-09
1.492843524e-09
-3.13337334316e-09
-8.23463908826e-11
-3.07780944938e-09
8.52574810864e-11
-1.66595187184e-09
-9.44444317292e-10
-5.57578944383e-08
2.80096049008e-10
2.865806687e-10
3.17746731976e-08
-5.55302844039e-08
5.54447101913e-08
3.63038502341e-08
-5.56922880142e-08
3.16374177331e-08
-2.45772121507e-10
-1.26757200923e-08
4.22669237218e-11
3.36722874498e-11
3.42297603225e-11
1.28512534132e-08
-8.17590076826e-09
8.11417434296e-09
1.28943410559e-08
2.43638766703e-10
-7.61113924736e-09
-1.28781734298e-08
7.60190370211e-09
-2.50570847573e-10
1.29577420533e-08
-8.23506263128e-09
-2.77544113396e-10
8.20343362578e-09
-7.48791350008e-09
-1.2619832754e-08
3.27146137422e-11
5.81380922291e-11
4.0157439414e-11
7.48929280059e-09
-7.98094040068e-10
7.98094040068e-10
-3.06347503788e-24
-4.95895334542e-10
4.95895334542e-10
-2.89554633087e-09
2.93175289115e-09
1.41277707635e-11
4.28247900179e-12
1.11998517425e-11
2.71162353356e-12
1.89816333587e-09
1.87432993673e-09
-3.04094264e-09
-1.92505085222e-09
2.62007201247e-11
2.13320177338e-11
4.12985480384e-11
2.49557121729e-11
7.57782958906e-10
-4.5461961444e-10
-7.48285972684e-11
5.24232583876e-10
-7.52567331075e-10
7.98094040068e-10
-7.98094040068e-10
3.06347503788e-24
-5.24232583877e-10
5.24232583876e-10
-2.89664887138e-09
9.98480211946e-12
1.36610517539e-11
-1.9783693748e-12
3.92078528467e-11
1.84878690021e-09
-6.4969449112e-10
-3.93845319325e-10
4.18201800788e-10
-4.14855150952e-11
6.66823524752e-10
1.35140856222e-08
-3.0399713494e-10
8.73258573731e-09
-1.34202546563e-08
8.66820756593e-11
1.87962533359e-11
7.68226899077e-11
3.52141064316e-10
-1.35521139091e-08
9.34272130324e-09
1.35178484426e-08
9.27303161408e-09
1.07215521565e-10
8.45956058763e-11
9.56497347284e-11
1.34896501853e-08
8.79083177499e-09
-1.35450702404e-08
-9.23176146677e-10
3.3753680908e-10
3.19631979584e-10
2.69958225794e-08
-5.61165738921e-08
-7.64423370537e-10
2.68818933493e-08
-5.58165938796e-08
1.29524863048e-08
-3.34671950607e-10
7.01411267258e-11
8.77454577746e-11
1.04430973683e-10
8.65954813001e-09
3.55308636867e-10
-1.29618503198e-08
1.29314122524e-08
9.32250371911e-09
-3.04652985357e-10
1.082956657e-10
1.03911340778e-10
1.22321475705e-10
1.29042180733e-08
9.25035721802e-09
-3.03585981672e-10
8.75563753952e-09
-2.34267030729e-10
-1.32720719979e-08
7.36133662459e-12
1.44625817187e-11
3.55703142092e-11
1.34933785802e-08
2.76383708705e-10
-1.34849685581e-08
-1.32129622282e-08
2.61486042754e-11
9.41572383673e-11
5.56970694822e-11
-4.33836855104e-10
1.32545221352e-08
6.32589573308e-09
1.83717552824e-10
1.48289330441e-10
1.59356268141e-10
-1.34713512863e-08
-1.35155885208e-08
3.71121644002e-10
7.00587864514e-09
6.39618898968e-09
-1.36209550621e-08
6.86575974724e-09
1.21976076543e-10
1.1277383306e-10
1.441244942e-10
-4.08438038476e-10
1.26033884101e-08
1.35052808934e-10
1.06830740378e-10
1.91199691415e-10
1.69363691737e-10
-1.27509869781e-08
6.27948540703e-09
-1.28810874314e-08
3.21545409938e-10
6.98777586458e-09
-3.00528627685e-10
-1.29861391939e-08
-2.89968151299e-10
6.38277086493e-09
1.04587047517e-10
5.72925828952e-11
8.0020857553e-11
6.85953443191e-09
1.33124855433e-08
9.70838074323e-09
-3.38231579589e-09
-3.22773979989e-09
-3.30227532552e-09
-3.63589095638e-10
1.04084171967e-08
-2.11052728666e-10
1.33847738491e-08
1.27529329548e-08
-3.1719011715e-09
-3.16665416212e-09
-3.11372066445e-09
-3.43157558975e-10
9.72775326674e-09
-1.98198464845e-10
1.28117915573e-08
1.04162380735e-08
-6.77945606425e-11
-4.79963599677e-10
-7.36785464513e-10
4.86449584763e-10
1.82739586947e-09
3.73315909773e-11
-1.82081032042e-09
2.94502459068e-09
9.29020388673e-11
-2.96412551529e-09
1.73284538371e-09
2.74447147776e-09
1.53842996409e-09
-1.54356461638e-09
-2.72378887887e-09
2.03243956095e-11
3.42987828278e-11
3.6472824011e-11
3.53556382374e-11
1.7894773875e-09
-1.58587656657e-09
6.80791693265e-10
7.02158210953e-10
6.6988289203e-10
4.26850478991e-10
4.19786605769e-10
3.95988790455e-10
4.22526472718e-10
-2.66020795723e-09
6.86413875047e-10
6.58610939174e-10
6.81950935408e-10
6.56033139011e-10
3.97414993303e-10
4.1908543607e-10
4.01215907448e-10
3.90814734727e-10
-2.60782485641e-11
1.79842469528e-09
-2.80610789095e-09
-1.78875045314e-09
3.07523351662e-09
-2.10733842005e-09
1.99869487454e-11
2.10257458335e-09
3.2441016579e-09
3.26217655376e-09
-3.61593930266e-11
-2.03768367728e-09
-3.2111748672e-09
2.76444577355e-09
-1.77265121844e-09
4.60290989029e-10
-2.77584593068e-09
4.39767223738e-10
4.58955767781e-10
4.38200430192e-10
-2.11619797973e-09
3.32178055479e-09
4.38113999016e-10
2.97685274762e-09
4.42166023676e-10
4.81816255973e-10
4.54411288205e-10
-1.76882142906e-09
-2.84609707336e-09
6.89093441393e-12
-2.88876294427e-09
3.14062945155e-09
3.33942411217e-09
-3.41897380277e-11
-3.27511188236e-09
3.3995089084e-09
-2.90495011527e-09
7.42325673008e-10
-7.07462397842e-10
-4.78675205143e-10
1.5886453524e-11
4.83312453134e-10
3.06131885393e-09
6.33581510838e-12
7.65763637364e-12
-1.98952152067e-11
-2.49281387025e-11
1.96303104983e-09
2.10784357604e-09
3.20211899095e-09
-2.75214254167e-11
-3.01386331806e-12
-8.05172509747e-12
1.796676858e-12
-7.15288031606e-11
5.33636984998e-10
7.55965766096e-10
7.98094040068e-10
0
-5.33636984999e-10
5.33636984999e-10
3.16624790214e-09
-2.37068686134e-11
1.96904679342e-11
-1.10663574078e-11
4.9131419714e-12
2.11751511763e-09
7.31331262764e-10
4.40340886973e-10
-6.55818668595e-10
3.98756626388e-11
1.68893172903e-09
-3.19465569671e-11
2.87029609277e-09
-1.67787353717e-09
-2.84940772766e-09
-3.1880546325e-09
-2.48193057282e-11
-1.96856319673e-09
-8.45359514487e-12
-1.8891607845e-09
-3.13884910648e-09
-2.80235167026e-09
-1.74284840321e-09
4.34591633672e-10
4.39619104395e-10
4.49901529102e-10
-2.8167524772e-09
4.4160636266e-10
4.129556157e-10
4.46471643141e-10
-1.8994667009e-09
-3.17412495885e-09
-1.74346868953e-09
-1.10463938498e-10
-2.87872650363e-09
2.84737534139e-09
1.59442810673e-09
3.25561087594e-09
1.6012095118e-10
1.75960670375e-09
-3.27391477457e-09
3.25271946874e-09
1.82245265473e-09
1.64305110498e-09
-3.00513887041e-09
-7.66013450379e-11
2.89232792471e-09
-3.24995999775e-09
2.41077541308e-11
1.61598609504e-09
-5.77205258983e-11
-2.81324519008e-09
-9.90339999156e-12
-1.81117113904e-09
2.79654634873e-09
-1.53627484422e-09
-2.75240734816e-09
3.16486689958e-09
1.13069951689e-10
-3.16714632344e-09
-2.810323548e-09
-8.65747949074e-11
-1.29553641423e-09
2.57774138183e-09
-2.49312798514e-09
1.29749781244e-09
1.5118081698e-09
1.57460951113e-10
2.98460069318e-09
-1.53685627169e-09
-2.98196073347e-09
2.93490210219e-09
-2.90231861094e-09
1.49948062402e-09
2.59942499947e-09
-1.41498076787e-09
-2.56294745584e-09
2.62863916548e-09
-2.32130224511e-11
-1.38491615493e-09
1.35723139373e-09
1.57687565799e-09
8.45760154241e-11
-1.58845948713e-09
4.57543385248e-11
-2.98057579864e-09
1.68151372523e-09
1.46665545949e-09
-2.67142519178e-09
-1.4637209116e-09
3.64202363452e-10
3.40492269624e-10
3.908901408e-10
3.85256232388e-10
1.58800979664e-09
-1.37234033181e-09
2.76856619795e-09
1.50208671062e-09
-1.78839986431e-10
-2.89194207772e-09
-1.49600100683e-09
1.4380623413e-10
-1.61652313173e-09
-3.07157596237e-09
-1.44395168348e-09
-2.68691909519e-09
1.42946796972e-10
-3.16513484682e-09
-1.69813631236e-09
-1.57189654102e-09
-2.67801949646e-09
-3.18879981365e-09
-1.62757365714e-09
1.4392498404e-09
-2.86910778884e-09
-1.71486618689e-10
-1.38879475699e-09
2.03353570607e-10
3.20976098582e-09
-1.48600667713e-09
-3.24540341575e-09
2.77471136955e-09
-1.33935212937e-09
1.34486097761e-09
-2.74009878945e-09
1.99340674671e-10
-1.56288572919e-09
-1.30331692504e-09
-2.80426493943e-09
-1.55405490757e-09
2.99055090887e-09
-1.54391139413e-10
-2.94829669427e-09
1.45751182425e-10
-3.28389279008e-09
-3.28616704861e-09
-2.88391290439e-09
-1.80357239108e-10
2.38247742857e-10
3.2915154284e-09
-3.32749992856e-09
-2.83867387921e-09
9.76431035251e-08
-1.45448067679e-09
7.66708568064e-10
5.54937855778e-10
-2.13950662117e-07
4.65163580547e-10
2.51782458296e-10
1.44542935736e-09
-2.99512933371e-09
1.18162500788e-09
-2.44966575129e-09
1.72703662225e-10
-2.89780255881e-09
1.43757333474e-09
-2.34016560648e-09
1.20136629145e-09
-5.52407973684e-08
5.53376789322e-08
5.5284490821e-08
2.1258529526e-10
5.04403316669e-08
-1.34739508631e-08
5.04255274872e-08
-4.41122345722e-10
4.55987524994e-08
5.53966276238e-08
4.09833538762e-08
4.57482043403e-08
-4.63101878702e-11
3.33565237909e-09
2.04823429963e-09
-3.43479160887e-09
6.61701608497e-11
2.32712881551e-09
2.21455061445e-09
2.23810515843e-09
-5.96523980713e-11
3.26802381037e-09
2.05502512732e-09
-2.21231859862e-09
6.82512218369e-11
2.2132697545e-09
-3.36000990728e-09
6.99052768111e-11
-2.24315336382e-09
-3.18294587791e-09
2.24031346853e-09
2.05152024918e-09
3.11166945215e-09
-1.12379658134e-10
-2.09180053762e-09
-7.45335396864e-10
-7.63812175529e-10
-7.60202627027e-10
2.14246404499e-09
2.22364111022e-09
7.73739642736e-11
8.86680387599e-11
-3.16810960856e-09
2.33050545748e-09
2.25343665257e-09
-3.13733639365e-09
2.27384614354e-09
2.23172122138e-09
-7.32303218922e-10
-7.50544971897e-10
-7.57464275849e-10
3.88361860251e-10
-6.02350415887e-10
-3.06347503788e-24
5.98438693403e-10
-3.74465335648e-10
0
-5.05341084321e-10
7.98094040069e-10
5.0534108432e-10
6.09653147968e-10
-3.80567932427e-10
-5.99293919456e-10
3.83869755669e-10
-7.50525048692e-11
8.07538339054e-10
-4.86550182753e-10
-7.41830985973e-10
6.06227132364e-10
3.89809506481e-10
-4.12668676434e-10
-6.06094323903e-10
8.07538339054e-10
-5.05341084321e-10
7.68960616544e-11
5.95546531342e-10
-4.18868361962e-10
3.83915822373e-10
-6.12210352605e-10
3.78819749479e-10
-6.21609569894e-10
6.13114307813e-10
-8.16982638039e-10
-6.12695007576e-24
5.24232583876e-10
8.1698263804e-10
5.01171537276e-10
-1.20339858898e-10
-6.93779905059e-10
5.14786834099e-10
-7.53701873207e-10
3.83085590173e-10
5.85928488097e-10
-6.72475816238e-10
3.94589316767e-10
0
6.01892969771e-10
-3.06347503788e-24
-5.14786834099e-10
5.14786834098e-10
-6.11397841111e-10
-3.96670146816e-10
6.07853827796e-10
4.04496639134e-10
-8.07538339054e-10
0
8.07538339054e-10
4.00618459762e-10
5.91020036663e-10
3.79374870156e-10
6.16789817236e-10
0
8.16982638039e-10
5.33636984998e-10
5.43123358008e-10
-7.34748077797e-11
7.45272983648e-10
5.80392813179e-10
3.83695949657e-10
0
5.43123358009e-10
8.16982638039e-10
-3.7776097489e-10
3.78535718283e-10
5.68678386015e-10
6.05950970765e-10
-4.8816191792e-10
1.12840410762e-10
6.88482313737e-10
4.84933233489e-10
-3.95677291224e-10
6.01552126357e-10
4.08314807771e-10
-3.06323976601e-24
8.07538339053e-10
5.8669633147e-10
9.59521284321e-11
7.66547650711e-10
4.04614083106e-10
6.36674879873e-10
6.81868787794e-10
4.12209693728e-10
-2.12143392898e-07
2.89294830725e-07
-3.80478309516e-10
2.50564318507e-07
-5.05602914191e-08
-5.05194174632e-08
-6.51285021612e-10
2.50581976205e-07
2.12412251089e-07
2.50818336246e-07
-7.46967843718e-10
2.89583988439e-07
-3.67109980915e-10
2.1256405048e-07
2.9110276067e-10
1.34989144171e-08
9.91106554716e-09
1.34242763717e-08
9.85689414101e-09
-1.80086934238e-10
1.04387669056e-08
1.0513062155e-08
2.77822975964e-10
1.29175038791e-08
9.90296873168e-09
-2.55817787232e-10
1.28478951334e-08
9.84788249791e-09
-1.70237237839e-10
1.28197507324e-08
1.04389500796e-08
1.29213775561e-08
-1.59593117435e-10
1.04985443577e-08
-6.13061253933e-10
8.29849567099e-11
-4.30398670905e-10
-1.19056840727e-10
7.31500152026e-10
4.33605331027e-10
6.90005745225e-10
4.44557848791e-10
-5.85586133967e-11
-4.09604754451e-10
-6.07162723201e-10
3.70003393163e-10
-1.06315057713e-10
-6.88629048946e-10
-4.23086781525e-10
-9.9480475804e-11
4.72195667863e-10
-6.67928747471e-10
-5.71161008407e-11
4.15905383826e-10
1.28783080497e-08
-1.10613275753e-08
-1.66111917843e-10
1.1066045527e-08
-1.16950492638e-08
-7.08580579472e-11
1.16933442555e-08
1.29022211351e-08
1.34624110218e-08
-4.47274926347e-10
7.18077721469e-11
4.4806340199e-10
-6.95384643997e-10
4.84619212638e-11
-4.37575890777e-10
1.73009076474e-10
-4.6981460145e-10
4.59230740805e-10
7.2641680902e-10
-3.99670462092e-10
-7.32572426185e-10
-5.04980294115e-10
5.0931746623e-10
4.69268517152e-10
-4.85391048885e-10
-6.52710253918e-10
5.30504107026e-11
4.73664504173e-10
5.7955834555e-11
1.68122286844e-10
-3.9834569971e-10
7.0795448506e-10
-7.11920668717e-10
4.80053752113e-10
1.48129243723e-09
-2.15738975789e-10
-1.46628055079e-09
3.32982416471e-10
-3.26562867027e-09
-2.35831161471e-10
4.30757694994e-10
1.43654107248e-09
-3.14530450248e-09
-3.97916184315e-10
2.21019395313e-10
-5.81565691696e-09
1.57973773705e-10
1.60142558698e-10
5.76615107911e-09
-1.30785318451e-08
-5.80780067888e-09
5.78180302994e-09
-2.96353204536e-10
-1.30617045247e-08
1.34581031734e-09
-1.42583380411e-09
-2.87565701131e-09
3.87012106956e-10
-3.0477706918e-09
1.42051649381e-09
-2.64704138665e-09
1.26963853226e-09
-3.95709445603e-10
1.98781612028e-10
1.42945284916e-10
1.27151546973e-10
-1.37709051497e-08
-3.20330498298e-10
-1.37006234135e-08
2.80896776709e-10
-1.43966919581e-09
-3.35412993541e-09
-1.37238466396e-09
-3.05364271442e-09
-1.28719644604e-09
-2.99181396015e-09
3.03008865332e-10
-3.42083778219e-09
-3.00069252723e-09
-1.40541022523e-09
-3.04073267558e-10
1.3285626408e-09
-3.07213678322e-09
2.94168903651e-10
1.38380792561e-09
-1.4015064323e-09
-3.26380112573e-09
-1.44027509463e-09
-3.23096581636e-09
1.35504340982e-09
-3.16293688487e-09
-2.02543302704e-10
1.37261332494e-09
-1.29805857489e-09
-3.37969698408e-09
-1.37838633015e-09
2.17142309083e-10
-3.36294579659e-09
-1.36630640081e-09
-3.44160162049e-09
-3.36682033699e-09
-2.18265522012e-10
-1.1521708682e-09
1.23786211589e-06
-1.23821562228e-06
1.03555069044e-09
-1.55582465845e-09
1.23863180664e-06
2.36612101271e-09
1.27107476055e-09
-9.88434869928e-06
2.55384057581e-09
9.88250964128e-06
2.15771287598e-09
-9.89855735168e-06
2.21387636625e-09
9.89694249873e-06
3.18465586824e-09
1.23828339559e-06
2.06453815955e-09
8.75434673461e-10
1.44026092989e-09
1.24351009127e-09
1.94240808928e-08
1.04885203842e-10
-2.89551347862e-07
-1.95127533535e-08
-8.79310881787e-11
2.46872883393e-09
-4.36141913821e-11
-2.41440707533e-09
-3.6029929079e-08
3.59780387808e-08
4.11827308992e-11
9.31377271745e-09
-1.37723242879e-10
-9.27411894182e-09
1.46657186928e-10
9.2744900625e-09
-9.32307778217e-09
-4.67782139156e-10
-1.23696927238e-06
-1.23738908085e-06
9.8932502394e-06
-5.94006315716e-10
4.59174729121e-10
1.23780512321e-06
4.30960520722e-09
-4.44856670267e-09
4.55649565477e-12
-4.38266314741e-09
3.98894861067e-11
1.65263636656e-11
1.88866628266e-11
2.06342955663e-11
1.16271262256e-09
1.10974847533e-09
1.0568007743e-09
1.09186946684e-09
-3.65946377677e-11
-4.08761650968e-08
2.47561672537e-09
2.88593270591e-11
-3.91308318928e-10
4.06826616114e-08
3.59808451961e-08
-9.8724850811e-09
-9.25886310923e-09
-8.70685036071e-09
-8.65328611722e-09
1.18213165875e-10
1.09733287547e-10
7.8425181438e-11
4.10271154426e-11
-9.84351209815e-09
-1.05130813572e-08
-1.04577463978e-08
2.47030948202e-09
-2.45615011912e-09
-3.59831987321e-08
-5.7041246783e-11
3.59824664246e-08
3.6100810104e-08
3.59404770566e-08
-3.61936823523e-08
-5.62348175081e-10
-3.59803449384e-08
1.3864115247e-10
2.16811441315e-10
2.01912468488e-10
4.63277987832e-07
4.64259518405e-07
9.81950022979e-10
1.37862157284e-09
1.00979184352e-09
1.18380407067e-09
-4.65483990348e-07
1.55284994164e-07
5.92232131347e-10
3.37810489591e-10
6.28985488375e-10
3.4621066486e-10
-9.302081048e-09
-1.2716679277e-10
1.68971499488e-08
3.59604004688e-08
-4.54997032313e-09
-4.52334194328e-09
-3.91698459752e-09
-3.92249819285e-09
3.17145892222e-11
3.42036439812e-11
2.37639840954e-11
-1.5329681369e-12
-8.67509593954e-09
-9.26954748975e-09
-8.65901333983e-09
-4.96681470678e-09
-2.16481631378e-12
4.35041846319e-09
-3.3127064376e-11
3.92137471765e-11
-8.26799444992e-12
2.14143503635e-11
1.22409243077e-09
1.22857886695e-09
1.16289014315e-09
1.29337178754e-09
9.29867122346e-09
-4.58139977446e-09
-2.72793321365e-10
-9.399273377e-09
4.5431705945e-09
4.11624654872e-10
4.93165756214e-09
-3.9307670149e-11
-4.94950543866e-09
-4.47053838789e-09
1.88067790033e-11
2.44370809285e-11
1.61073500761e-11
1.97760218896e-11
5.12807956691e-09
-3.06926964001e-11
-9.29039788277e-09
-5.13772010078e-09
2.86500650483e-11
-5.14666864624e-09
-2.20845276334e-10
9.24446791048e-09
5.17506619407e-09
4.91019333282e-11
8.81593588621e-11
5.41483974962e-11
5.5241351804e-11
-5.09958291166e-11
4.92876629131e-09
-5.04877734014e-09
3.86364747876e-11
4.01441363151e-11
3.1795841289e-11
2.52732809236e-11
-9.90964031714e-09
9.81887235577e-09
3.92750900902e-10
-2.75105667924e-10
-5.17354591784e-09
5.87325679232e-10
8.84596521744e-10
4.50306773592e-10
4.2308040391e-10
-1.54736475115e-07
-4.64327178953e-07
-4.6451143552e-07
-1.54682249353e-07
1.23822288475e-06
-1.39109883972e-06
-4.70540431521e-10
1.54963125995e-07
-5.81555219124e-08
-1.93704241292e-08
-5.82018339471e-08
4.51324400172e-09
-4.56370656594e-09
4.57480673916e-09
-4.49366332889e-09
-2.61243503986e-11
5.80685398842e-08
5.79970496448e-08
-5.85407039349e-08
7.90126762096e-11
1.78244431464e-10
1.40278304174e-10
1.08798858599e-10
1.93219504677e-08
4.13481715886e-11
6.36354758857e-11
4.5736081716e-11
8.74126923727e-11
1.35298539311e-07
1.28761410351e-10
2.89434490668e-07
-1.35216093738e-07
-2.28527048385e-10
-2.89417170603e-07
-7.30536778361e-09
-2.4537926864e-09
-7.33818513687e-09
1.9510382946e-08
-2.07394342339e-10
7.51405605093e-11
1.72384452364e-11
7.4605483954e-11
-4.08573830832e-08
-4.08839292273e-08
-4.56954356015e-08
-4.57819992257e-08
-4.07646909729e-08
4.0781652143e-08
3.60861666652e-08
-3.93626050219e-10
4.64047313894e-07
7.71298667922e-07
1.05111818836e-09
7.64110555717e-10
4.92264014646e-10
7.40835540793e-10
-7.72070253551e-07
-1.08108045339e-06
-1.55278802779e-07
1.54943359821e-07
2.80125666841e-10
1.09838877267e-10
1.70592798293e-10
1.16135822184e-10
4.64230778698e-07
3.39763983682e-10
2.789691895e-10
2.2669526996e-10
5.17785253427e-10
-1.08118687096e-06
2.70314103567e-10
4.95603129637e-10
3.65889051224e-10
1.79200587914e-10
9.27638313743e-09
-1.01385251296e-10
7.50953571461e-09
-9.27254909915e-09
9.80333012815e-11
-7.51001780288e-09
-7.58770844476e-09
-9.3782881653e-09
-1.89783237483e-10
9.4140553691e-09
7.53444371815e-09
6.76200637785e-11
3.49559234335e-11
6.44214778236e-11
4.0283295241e-11
-7.52103550754e-09
7.41063305189e-09
-2.25163575862e-10
7.51814472822e-09
-7.4247501411e-09
6.41162216331e-11
5.8947975823e-11
5.70868879013e-11
6.20203590464e-11
-1.00182126316e-08
4.0267512108e-10
-2.98296729286e-10
-4.57720585182e-09
-9.95479620985e-09
9.9972226667e-09
-1.86154708706e-10
-7.61351467774e-09
5.04864015183e-11
3.30559522754e-11
6.36393713632e-11
2.23527596774e-11
-1.0964349749e-09
5.80934188528e-10
-5.04370707534e-12
1.07756959985e-09
-5.57074179879e-10
4.90734752644e-14
6.50861920143e-10
-2.57741697225e-12
-1.10424625687e-09
-6.23982501446e-10
-1.64907197557e-11
-2.70513054727e-09
-6.92394044522e-11
4.35023596139e-09
2.68488677086e-09
1.85371365354e-11
2.94538056884e-11
2.9246449005e-11
-2.59847161101e-09
-8.77438664028e-12
-2.55473827613e-11
6.50489577444e-10
6.13742758535e-10
6.85918675907e-10
5.8175731658e-10
7.09862855161e-10
6.67214064751e-10
6.34381802542e-10
5.91745879531e-10
4.08085603992e-08
-1.37460527219e-10
-4.07640628312e-08
2.17290937692e-08
-5.74687586174e-09
-5.11925196166e-09
-5.72636719726e-09
8.44437776126e-11
-9.41614196619e-11
-5.53860204632e-08
3.62128945833e-08
-3.6175593165e-08
5.53890067553e-08
5.38737091561e-11
5.54575345489e-08
-2.73689595107e-11
2.17364352864e-08
-2.17680869296e-08
-5.5428512808e-08
2.99988619396e-11
-3.59168169298e-08
1.69453910959e-08
3.59805088187e-08
-1.69463511685e-08
-1.89898608988e-10
-5.14324568342e-09
5.14111342394e-09
4.55642442188e-09
-4.32129769775e-11
5.8226113797e-08
9.5962208544e-08
-9.64840203166e-08
2.0236288168e-10
2.21947339881e-10
1.8707934995e-10
2.7359018006e-10
-1.34484835336e-07
-1.95446707432e-08
1.24447496894e-10
7.17954686269e-11
8.16531146742e-11
7.45630185049e-11
1.95315005306e-08
-1.34591150673e-07
5.82169622632e-08
1.76426799156e-10
1.97416553871e-10
1.20037761723e-10
2.50571244595e-10
1.42777614313e-10
8.30236205192e-11
1.23747149938e-10
8.21250994319e-11
3.62703879096e-08
-3.65640842292e-08
1.71204892627e-08
-5.37077307411e-10
2.06952291424e-10
2.21252405332e-10
2.11719718234e-10
-1.7202433372e-08
2.16012728987e-08
4.81981016315e-11
5.7774959507e-11
6.98952453195e-11
-2.15184218628e-08
-1.71044513172e-08
-2.45674726628e-10
3.96531843333e-09
4.56366662445e-09
3.95940740756e-09
-5.87624681883e-08
9.65867235122e-08
1.78487749383e-10
2.54772480244e-10
1.68528392903e-10
2.89874148913e-10
1.35556471455e-07
2.30700555515e-10
4.36686211896e-10
3.78119321595e-10
2.14597611536e-10
-5.89292666994e-08
2.17268327331e-08
-3.58655804449e-08
-2.17368338794e-08
-2.71180937472e-10
5.26811941514e-11
5.37290679906e-11
9.28426403687e-11
1.71441131123e-10
1.67552038091e-10
1.33722418754e-10
3.61276765439e-08
2.20656020249e-08
-5.63104486472e-10
-2.20533470371e-08
8.98190094657e-11
7.48716330924e-11
1.34484774849e-10
2.18493366004e-08
-2.19438414278e-08
-3.31200621048e-10
5.68036478397e-09
5.14382617304e-09
5.70937046016e-09
9.67444580714e-08
-9.7067274697e-08
4.22423506477e-10
3.00685674627e-10
3.59414996251e-10
3.24945667053e-10
1.34839587844e-07
-1.35290752823e-07
4.83582587186e-10
4.83621570847e-10
4.02718483376e-10
5.29939188555e-10
1.35202509461e-07
-1.35272584738e-07
9.66710192188e-08
4.09723502746e-10
2.48360091742e-10
3.41066092086e-10
3.32518180022e-10
4.81161017863e-10
4.40899828204e-10
3.98638663751e-10
5.31715098532e-10
-9.74701666026e-08
-1.16591715637e-09
-1.17731544374e-11
1.15477709662e-09
1.51437675624e-11
5.88703635157e-10
-6.84405068228e-09
-5.50301273727e-11
2.125693169e-09
4.90551378472e-11
6.85707402095e-09
-2.13274151814e-09
-5.91827199494e-12
-1.16540729371e-09
-1.16871010083e-11
6.67957430483e-10
-6.76187430223e-09
-1.19185680328e-10
4.52340531225e-09
-4.53087814725e-09
6.77368427004e-09
2.93973482872e-11
2.56731504806e-11
2.27381982253e-11
3.70398505163e-11
-7.00238895213e-11
2.72867023758e-09
6.32881021449e-11
-2.7384295767e-09
-6.82755555578e-09
-2.75953889034e-09
-6.5050156822e-11
9.47693933279e-09
2.73458838349e-09
8.18576980552e-11
4.51581819854e-09
7.36504868347e-09
-7.51464699883e-11
-4.51085788263e-09
-7.35852319509e-09
3.66554259788e-11
-7.05280718967e-12
2.07209102581e-11
1.33371366555e-11
2.76325614443e-09
-9.04142285052e-11
-2.75581544219e-09
7.53094696045e-09
6.25905902637e-11
4.01828827963e-11
3.3223789435e-11
4.65487692785e-12
-1.182372382e-10
4.9666274243e-09
-2.72250395221e-09
3.79691348356e-11
2.96554339008e-11
6.80436635798e-09
-2.63956357375e-11
4.51019924065e-09
-6.74204827725e-09
8.45413612093e-12
-2.60946645546e-11
1.54420771855e-11
-2.81050358455e-11
-1.08686067365e-10
2.74087693465e-09
6.83571750102e-09
5.7021949899e-11
6.48457129518e-11
4.89558860991e-11
-7.03655347054e-09
-1.31361818358e-10
-9.27747878367e-09
6.99962982571e-09
1.29512142507e-11
1.91828977513e-11
2.25613658424e-11
1.27806037084e-11
5.15881419902e-09
-1.09861352858e-11
-5.15946356344e-09
7.44460065074e-09
-3.4181738751e-12
-3.31407572959e-11
-1.23546111313e-12
-3.01220752701e-11
6.83839288204e-09
-1.93778953473e-10
-6.87439217384e-09
-7.45878906273e-09
2.73376943123e-11
5.71139294135e-11
4.45461106803e-11
3.85340660801e-11
5.1302990152e-09
-1.49752341778e-10
-5.13189024465e-09
-6.76284080679e-09
4.82029104853e-11
3.13340903972e-11
3.49016794952e-11
3.7871395406e-11
5.19835268344e-12
5.20390128645e-09
6.93310144641e-09
7.2706739014e-12
-7.11591386539e-11
-5.52310792053e-11
-5.99009846047e-11
6.93034532915e-09
-2.18261291394e-10
6.80519797685e-09
-6.9017952381e-09
4.73394239279e-11
6.54142238743e-11
5.41852255536e-11
5.59672321732e-11
-9.87426265181e-09
-1.50474249748e-10
-7.03034197251e-09
1.24928934737e-11
2.18801859226e-11
1.50460967178e-11
1.43100175683e-11
-1.04590812647e-09
2.52828094165e-10
-9.53687194356e-12
1.04519861484e-09
-2.44626556749e-10
2.044846153e-12
-8.81930730272e-10
-2.37685662922e-10
-5.47361685109e-12
1.15092947635e-11
8.75122012831e-10
2.38458702449e-10
-2.97537490895e-10
-2.45100590865e-23
7.0843413495e-11
-4.9020118173e-23
2.97537490895e-10
-1.83017749321e-11
-1.83017749322e-11
-1.71199318153e-11
-1.71199318153e-11
-3.93448612501e-11
3.18471110815e-10
2.43929440335e-10
-2.41709257857e-10
-3.02319265274e-10
2.0972833231e-11
-1.89175292684e-38
-2.97537490895e-10
-3.06959301977e-10
0
3.06959301978e-10
2.97537490895e-10
-3.06323976601e-24
0
3.06323976601e-24
1.2225724267e-09
-9.31253384542e-10
-9.99167646394e-12
-1.22580211104e-09
6.60304300417e-12
9.3787170234e-10
-5.44247985459e-09
4.49042911564e-09
-4.0590295614e-11
1.26382112702e-12
1.90407547295e-11
-4.22397081463e-11
-5.40707391466e-11
1.2777833118e-09
1.43452603214e-09
1.35327323717e-09
1.35348278808e-09
7.55399180108e-11
-5.7036019847e-11
5.76655453875e-11
-7.88782892051e-11
-3.06323976601e-24
1.43236731408e-09
9.67128735843e-10
-4.04820694289e-11
3.37019835238e-11
-9.61414918814e-10
-1.4313010452e-09
0
-9.38587054583e-11
2.97537490895e-10
3.73102038272e-10
-2.97537490894e-10
-2.45096826226e-23
5.93660094411e-38
6.12836185155e-24
-7.79962725243e-38
-9.26923136779e-11
-9.38587054583e-11
-9.26923136779e-11
-8.36977670506e-11
6.9332713824e-09
7.56292852815e-11
-6.92366871886e-09
9.27484895566e-09
7.42377455308e-09
-1.24045857006e-10
-7.42418895503e-09
1.19411333449e-10
5.13534794071e-09
-2.16076106474e-10
6.92717899476e-09
7.40221667405e-09
6.67672668649e-11
5.89380964279e-11
5.18775875606e-11
5.00758678406e-11
2.17259003463e-09
-4.4363698488e-09
1.50515793214e-11
9.64529389596e-13
7.81765296308e-12
4.36890509717e-09
-2.10230935061e-09
-3.16934011343e-11
-2.75931116524e-09
2.7891021212e-09
2.06945008569e-09
8.2074913385e-12
-7.37626800018e-12
-6.61412825446e-12
-1.31718458538e-11
-1.23122575902e-11
1.21655776589e-08
7.17114307683e-09
-1.22034259947e-08
1.44076742869e-11
-1.55638571525e-12
7.76705369491e-12
7.22930135036e-12
-2.32731265804e-09
-1.67493693671e-08
2.40061267056e-09
1.27711250235e-11
2.26049630732e-11
1.77760954903e-11
1.49334613955e-11
1.66716191855e-08
1.28065183582e-11
1.2418691668e-11
1.76524318488e-11
1.61048313906e-11
1.21351188899e-08
7.28785296098e-09
-1.68665060298e-08
1.72547572235e-11
2.83487400435e-11
1.14664067919e-11
3.07695668241e-11
-1.98477384093e-09
-4.77606254373e-11
2.27283005395e-11
1.99125193102e-09
-1.9964677433e-09
2.0150219781e-09
-4.2557857649e-10
4.03454964589e-10
2.82908888378e-11
-6.49661232491e-11
-3.80322653603e-10
4.39121499916e-10
2.01970559645e-09
-3.11929725915e-11
-2.01158363258e-09
2.1200466348e-11
-1.81108680562e-09
1.812957348e-09
-4.07925180566e-10
-5.24232583876e-10
8.59578709202e-11
4.03973883038e-10
6.90419753373e-38
4.42226010486e-10
-6.05889422096e-11
2.09173878955e-09
-1.99162644733e-09
3.73390871365e-11
-2.06163632807e-09
-3.4339919337e-10
-4.48103334788e-10
-1.60179256189e-11
-1.22548413113e-23
4.54730865833e-10
3.52789587944e-10
-1.89998359067e-09
-4.74773632075e-11
2.31489804549e-09
1.91830450888e-09
-4.855282894e-11
-2.23718877155e-09
-4.93374487794e-10