/*--------------------------------*- C++ -*----------------------------------*\
| =========                 |                                                 |
| \\      /  F ield         | OpenFOAM: The Open Source CFD Toolbox           |
|  \\    /   O peration     | Version:  2406                                  |
|   \\  /    A nd           | Website:  www.openfoam.com                      |
|    \\/     M anipulation  |                                                 |
\*---------------------------------------------------------------------------*/
FoamFile
{
    version     2.0;
    format      ascii;
    arch        "LSB;label=32;scalar=64";
    class       volScalarField;
    location    "0.01";
    object      nut;
}
// * * * * * * * * * * * * * * * * * * * * * * * * * * * * * * * * * * * * * //

dimensions      [0 2 -1 0 0 0 0];

internalField   nonuniform List<scalar> 
29767
(
5.74623419358e-17
7.82430330063e-20
1.32698064076e-20
5.89237776959e-19
2.7084367536e-20
4.12584309039e-19
2.78439571142e-18
4.39663727457e-18
5.68523492612e-20
9.72325394574e-24
2.87710480295e-23
6.05172163996e-17
4.22636787392e-21
1.11117740807e-19
1.91032573738e-21
7.90022801798e-20
1.88840437883e-22
1.98859415944e-22
9.28612966347e-24
2.88581243276e-22
6.68009218626e-21
2.11826999974e-20
1.58648155311e-20
4.30099706988e-25
1.36062187621e-21
7.27472573603e-24
2.88358854705e-22
9.93707292532e-26
6.75672876126e-24
4.19377871559e-26
2.40275523263e-18
1.38171791463e-18
1.49953882695e-26
1.42872482183e-21
5.79143236618e-22
6.57651714406e-21
4.00159605133e-21
9.56573839655e-22
9.30922208359e-21
9.52965840264e-20
1.20148928543e-22
7.54094357756e-21
1.63898971202e-21
4.73777393289e-22
4.44683593583e-24
5.72084976923e-22
3.39186819066e-23
4.91850401025e-23
1.83276164079e-21
5.18371315919e-21
1.99744542097e-20
3.21973652562e-22
1.63029604106e-23
7.13230297468e-21
2.26554785827e-22
1.72442640496e-22
8.5852189869e-22
1.01897679329e-20
2.44597729004e-21
6.89866765382e-21
1.51567347388e-22
3.74165424191e-20
3.12435691587e-22
7.54747104149e-20
2.38337908458e-24
5.25043765787e-23
3.24494218173e-22
5.55229055264e-21
9.5724715195e-22
3.77998263071e-21
1.53884383361e-15
1.96528338937e-21
7.19840927139e-22
4.91826380904e-22
4.50135274423e-22
6.41003118721e-22
4.35218736651e-22
7.77048083712e-25
2.1423870736e-22
1.63664446544e-23
6.87043436546e-21
4.77932115868e-16
9.64053818183e-22
5.77123852953e-22
2.7431887166e-22
1.70083068648e-22
7.94012078804e-23
5.35764907373e-23
9.49190293905e-20
1.47195915314e-17
8.45356123893e-23
6.07892760266e-23
8.04184425143e-23
1.51616476544e-22
1.74476822354e-23
1.36389932513e-22
1.52696691377e-24
1.05816033014e-22
1.6807077787e-22
1.76310999154e-23
7.65879138094e-28
9.98380679003e-23
4.88699078744e-24
7.66470304841e-22
6.39658185133e-20
9.02192611711e-23
1.00271540948e-23
4.10487096408e-24
2.57057706332e-22
2.11540246356e-24
6.54092832661e-22
1.15527275725e-23
4.75124115358e-22
2.54303153815e-22
1.10435491164e-20
2.20954083941e-22
1.00908461017e-23
9.10501617078e-22
7.74134481613e-24
5.01002116216e-23
1.77506141585e-23
7.72062265678e-22
1.9722381253e-23
5.52088581041e-24
2.34615055088e-22
9.75631695896e-24
5.34882694329e-22
8.27778950133e-23
3.51060279825e-22
2.04005086304e-25
2.59972419454e-23
7.74913936736e-23
7.70630454185e-25
1.67218554779e-22
8.10100352663e-24
1.12050698305e-23
9.27290733436e-25
6.7978275955e-22
1.05324558033e-22
1.3634740385e-23
6.59261134782e-20
3.85665431184e-22
5.75343948432e-22
1.93506621608e-23
1.57235240832e-21
7.64288251787e-20
7.6929701852e-20
7.18255178753e-20
1.04304562689e-19
9.20608708022e-20
2.73508214129e-19
2.33979573289e-22
3.465931103e-22
1.72345572549e-21
7.63367315499e-23
1.23345406736e-22
3.73172739649e-21
1.71103095783e-22
9.52248120143e-22
1.47955916639e-20
9.8554538873e-24
2.58277046488e-22
4.8093331367e-24
1.12409371175e-22
6.62209056121e-21
6.90828284311e-23
4.12464695942e-24
7.30796621137e-23
6.87642576321e-24
1.37438396924e-26
2.48531637067e-22
2.7925311074e-25
8.46336990367e-27
1.05939737e-24
8.46489632202e-27
1.37336973752e-26
1.11488807192e-22
2.55176924149e-20
5.85037045594e-19
7.68931597781e-21
2.37903460783e-22
1.37598402325e-23
2.26974620356e-21
1.24280124224e-25
7.87120383667e-19
1.55648237831e-22
2.81311482849e-21
2.02926396309e-19
4.21174366228e-25
5.59628779139e-22
3.38151048792e-17
3.29275218713e-17
5.1773089691e-16
1.53221335638e-20
7.79689294781e-19
1.38477915676e-18
1.0237795362e-17
5.91643033201e-21
1.14741750937e-22
6.48432752879e-18
7.62447707381e-18
4.54489236318e-20
3.21725159181e-20
2.81000119293e-23
4.21759769602e-18
2.89487313791e-19
1.96826624171e-18
3.26196696768e-17
3.53365712685e-17
3.47545023361e-20
2.09274590989e-20
3.54980444542e-20
5.31345404559e-20
1.33567568887e-19
9.04601710568e-21
2.27153478308e-20
8.52449077983e-20
2.55034217037e-24
9.27569663332e-25
9.45997686565e-23
4.92324768838e-19
1.06011206065e-22
3.71622546888e-25
9.55078325434e-24
8.47824174587e-23
1.01221585353e-25
1.3867695652e-20
3.64213814158e-21
1.84577422022e-22
2.46018993984e-22
2.06952405261e-20
5.36180941701e-20
4.11393524345e-20
2.22489918321e-19
1.61630661251e-23
5.65068561192e-20
1.3372767372e-19
1.05605951374e-18
1.08835413441e-24
3.85784327153e-24
5.94748588045e-22
7.58660441191e-21
6.3909972365e-18
9.46850038482e-18
6.33515407348e-18
6.52630891009e-22
3.85990774772e-19
7.69401070113e-21
6.3123976129e-22
9.4437347569e-23
4.42881769183e-23
5.33381460348e-23
4.10710890014e-22
8.53529734255e-24
2.10246594836e-20
9.67650371284e-23
7.1455158664e-21
4.08594583911e-21
4.53330039279e-20
9.83490271853e-20
1.70154405218e-21
1.14084468127e-19
5.92822657557e-23
2.83677510925e-23
8.62018383606e-19
1.09077354004e-26
5.20882371253e-19
3.6678009454e-19
3.97544465332e-19
3.43793194986e-17
3.0369165658e-19
4.42386861027e-20
3.76923699723e-11
2.04845561304e-17
4.61043180098e-13
5.46969946061e-14
1.69667741373e-14
1.56138822942e-15
9.45098687754e-16
2.68786408423e-15
2.46933147752e-20
8.43188792282e-21
4.46860798026e-15
5.51494593246e-13
6.10973466204e-22
2.26142846492e-19
1.10855850907e-20
5.88429733553e-20
1.87986849474e-20
7.1413268852e-21
1.41235279319e-17
1.48691739462e-21
1.18061500644e-26
3.72802082308e-24
1.20060452147e-25
4.10902762879e-21
6.10927561256e-23
1.2629091928e-26
4.07714615674e-22
7.80164004679e-13
3.46034194131e-08
4.72956030652e-12
1.57325479336e-23
6.94701364252e-21
1.97717244843e-20
3.70084116611e-15
2.00942967304e-18
7.12055883355e-20
5.98601595372e-17
6.52266632458e-15
6.59947175708e-15
3.34004839852e-17
5.25614046206e-20
2.61135146012e-22
2.17558504149e-21
1.82403571385e-23
9.59283859867e-23
1.0128539388e-23
1.4357801451e-23
5.16187895352e-23
1.80363153092e-25
7.20141872552e-20
7.05205887435e-20
1.83671337191e-19
2.02313314179e-22
7.93444687298e-28
9.75671639793e-22
1.00312447134e-18
1.95936091359e-17
2.60552637651e-19
2.2829852954e-22
1.5894468809e-25
1.39017687872e-22
1.07628266727e-21
3.2269501742e-23
1.51911241653e-21
9.77068229086e-29
2.85805068625e-22
5.29854947781e-20
4.11796426777e-22
1.9645002212e-21
2.67894341052e-27
1.35121106121e-23
1.92746879677e-23
2.72332393446e-25
1.08320129805e-22
2.33473134789e-30
4.8607338503e-22
2.73871726919e-22
2.36363958955e-21
2.8079121937e-22
5.88584917723e-22
6.15786531014e-22
2.05223891873e-23
9.93136016804e-23
1.41840981198e-25
8.33581225639e-23
2.04255363614e-25
1.7258065474e-24
1.98025039002e-24
4.04199758527e-23
2.1750097786e-19
3.43528348835e-22
5.15326256447e-14
3.43044347437e-23
2.03834562268e-26
2.47331945891e-08
2.38532270765e-23
4.07279065275e-21
8.01485629349e-20
7.29266216355e-25
1.11606418981e-22
1.49083882629e-23
1.31549081934e-22
1.50015142351e-21
1.08749591123e-21
5.84770592163e-21
1.25786537671e-20
3.452582575e-26
7.44621510073e-23
9.85859770524e-21
1.2503548173e-20
1.19962157272e-27
1.7407014085e-19
1.65805047574e-23
1.50391541916e-19
7.60579611175e-28
6.42990675732e-22
3.83467824716e-24
3.25468704123e-23
2.77944916489e-22
3.32443394928e-22
1.02246795053e-10
9.32776067697e-18
2.11847641154e-18
4.92685108867e-18
3.02500829674e-19
1.35628936623e-20
9.50094864052e-27
1.959867751e-24
6.38077402176e-23
7.22868464173e-22
1.79300253166e-21
1.44364839365e-22
2.94107816295e-20
2.8692478599e-24
1.58150110647e-26
4.25316772773e-22
9.82042771302e-22
2.13476555548e-23
1.52172110109e-21
1.01652069061e-23
3.16202462801e-25
1.06986504965e-25
8.50849411205e-29
2.41990301686e-22
8.36463697091e-28
3.06290539053e-30
4.95705830956e-23
2.23300496183e-19
6.73518065982e-26
6.90721245725e-22
2.70879527448e-10
7.11490413147e-21
3.98952444229e-24
8.16338439498e-22
1.24930371058e-27
2.98251963622e-08
4.80031590435e-22
3.24428833139e-29
8.32494207248e-25
9.07422398968e-25
1.29681043941e-24
1.55050168393e-27
3.18221679199e-24
8.1260370812e-27
5.25608269926e-22
3.12136664918e-25
2.37228163991e-27
8.47265535577e-10
1.42266102195e-24
2.61119066217e-22
1.82136440261e-24
8.49141134693e-28
1.95453218719e-27
1.72558779838e-24
7.30791960307e-24
2.54777675063e-24
8.52668807304e-19
1.06124155579e-22
1.09086957681e-23
4.29508050871e-24
1.88856363307e-21
5.16392891425e-25
8.0507137327e-27
2.92580407763e-27
1.68928232899e-20
3.30123257373e-25
9.47110041649e-26
2.19877918269e-24
2.16583927727e-22
6.25830679336e-21
1.9301468318e-20
4.24616791038e-24
3.90090737839e-24
4.09451792861e-23
1.39202906988e-20
1.59367536595e-21
3.16480273942e-28
4.96194657664e-10
3.45020209084e-21
2.85717492393e-22
6.14008054207e-23
4.64404229664e-25
2.04792936964e-19
7.79258480487e-25
3.24831014614e-23
1.14676738174e-28
4.34052215276e-25
4.08452251826e-24
1.65402296747e-27
6.62368262569e-13
1.56801941836e-22
1.46226301774e-22
1.07632690972e-25
1.74939267402e-08
7.23688540108e-24
6.28711317891e-20
7.32588554532e-19
8.72188309399e-19
3.30150116811e-20
5.17200642093e-21
4.17744092238e-21
2.07574736114e-20
5.91467853396e-20
5.44751886135e-20
1.51714213287e-20
3.34144438449e-24
4.36624181513e-23
1.18540925461e-22
1.27353486144e-24
6.30631140328e-20
1.34431415894e-22
1.23715061354e-21
1.5522826634e-24
1.10570890918e-14
4.0601694485e-24
2.01703953186e-25
1.59241568386e-24
1.39153492687e-24
1.86614413188e-24
7.25066632437e-25
2.54475261608e-22
6.60442352118e-23
4.14301386504e-25
6.42365554205e-23
2.4839933751e-23
5.45739184335e-25
7.87718054376e-33
1.14436246726e-14
2.09491693793e-32
3.79883639038e-32
3.89831020006e-33
2.1629764216e-25
9.65212245966e-22
2.83393158564e-23
2.7268681929e-24
2.10210872872e-28
2.07915250732e-21
1.26622490331e-23
2.47680134542e-21
1.75188549161e-21
2.15026778704e-24
7.72883314162e-21
1.20691321381e-20
1.39459639324e-20
2.50564989607e-19
4.63283686429e-19
8.36842289031e-19
6.58084343772e-19
3.98175540211e-18
2.02821280678e-18
2.01079377433e-26
1.15638608243e-21
9.85441501346e-22
5.52234773886e-22
1.05791482417e-22
4.43804311838e-21
4.11249768952e-22
2.67236168437e-23
3.94193711281e-23
1.63953988547e-21
2.77353530098e-23
8.75470348953e-22
1.18516318576e-18
2.11660582136e-21
3.3148307595e-20
4.3978829699e-10
1.52578253582e-19
1.77738315589e-09
1.02452992906e-25
1.80471088592e-29
1.12447061596e-21
1.1134567308e-24
1.71113594719e-25
8.74999171733e-10
2.54959418836e-08
8.96637302407e-23
8.14479366274e-23
7.78187981556e-24
2.86405008416e-23
1.25284318704e-26
4.55585011105e-28
1.14983631229e-23
4.55815896704e-23
8.06290370242e-28
1.07168810088e-09
1.58468157253e-09
9.68546885554e-24
2.65622538371e-21
1.13732362976e-22
8.48180888586e-21
1.45118803922e-21
5.15217459031e-21
1.13581661082e-22
8.05400856645e-22
1.29940584743e-22
4.63827815032e-21
1.21881543564e-20
2.74584826942e-24
5.34534854135e-21
5.13065787888e-22
2.20728081767e-22
1.17021702984e-22
2.0402311215e-23
1.93000307671e-22
2.35032368704e-21
3.65254271862e-22
2.46262883217e-21
1.23353158225e-29
5.60876817986e-27
2.19233384782e-24
2.63593289856e-23
9.88645516136e-27
2.14214376497e-28
5.02425906203e-26
1.43265618934e-22
8.67078921268e-21
7.41472756904e-22
4.29556980976e-25
3.1847297058e-22
3.89027293843e-24
6.83802621225e-22
5.94838289561e-25
1.39692813004e-20
6.21571684503e-24
1.06275325956e-22
2.71029687757e-23
1.1705533142e-20
7.40588081829e-25
2.78637102528e-26
1.16195300985e-24
1.23594638599e-23
4.07661380144e-22
6.41746204662e-26
1.83254436319e-23
7.54232648464e-25
4.58598434665e-26
1.17755426686e-25
3.85452128553e-26
1.06182244031e-27
6.18424701322e-28
2.10786925713e-20
4.98542465044e-27
9.72418329425e-24
1.21959388266e-22
2.68202083946e-22
5.4333390772e-29
1.05943836398e-21
4.12985194865e-25
1.27854488047e-25
3.25893033048e-22
6.69388311064e-25
3.12502887929e-22
1.03860109106e-23
7.46265293188e-28
1.3911256289e-24
1.39692637465e-22
2.99255040199e-22
7.30706672649e-22
9.48206826257e-25
1.48647484346e-22
1.04219045576e-22
2.96431295127e-21
5.53517326899e-23
1.12067384205e-22
1.23108349963e-21
8.05833661808e-26
1.45185920474e-22
6.8476188786e-23
6.80823864528e-23
1.88566318834e-25
1.60545494511e-25
7.36729550549e-23
1.20825714992e-26
1.06107742227e-22
8.05770207271e-24
3.95854012206e-22
1.15006074672e-25
3.6355583012e-22
1.13607543872e-22
3.20752694546e-29
4.73491704377e-30
1.22497216541e-30
2.33757932558e-30
7.85682672672e-27
2.30023345302e-31
4.47561055382e-23
6.37794515703e-28
1.18443290858e-29
2.73051555971e-26
9.40682157668e-22
8.07504633846e-24
1.40912902737e-29
9.54075776692e-21
2.57964746405e-24
3.12599264388e-31
7.83527867525e-23
1.84824970158e-25
3.11890714295e-23
1.9203006859e-26
8.38726121049e-27
1.57367441028e-25
9.89286514846e-29
1.27915738849e-22
2.20213642309e-24
3.35718586344e-22
2.10537577265e-26
8.68825510054e-24
8.99427230863e-24
4.64619831698e-18
3.93615102108e-20
9.34487156154e-22
1.05153771671e-29
3.60706348069e-17
3.87256412877e-31
8.69955664346e-33
3.22915599971e-15
6.65150053984e-17
3.47071574469e-23
1.12006886438e-17
5.01100354147e-17
6.83672381339e-18
1.20031039414e-18
8.77918008415e-24
6.15179651393e-19
5.5781888711e-25
3.02463776712e-16
2.3367450005e-17
3.67558833419e-20
2.2375535121e-24
2.35598614986e-17
1.33714806097e-24
2.29748962003e-25
2.61880943397e-24
6.52529744946e-16
1.57367325093e-25
1.29167255582e-24
3.55240222126e-19
1.292654716e-26
1.73104112362e-22
1.03082879895e-20
9.46402594764e-21
4.78933557531e-21
4.13111404886e-24
5.4474580858e-21
3.2757576747e-21
6.82858091545e-25
7.97582627243e-25
2.2669685311e-24
1.54426886277e-23
6.46703177493e-21
4.74266496878e-20
1.30482849653e-22
1.16347500816e-21
3.85654529128e-16
7.86031828072e-23
6.70476923181e-16
7.64978033311e-24
1.50267980934e-23
5.55559639524e-17
1.41692521687e-23
3.64943860863e-22
6.40950061695e-24
4.83286905327e-19
2.96019751837e-22
6.68725192785e-19
3.51777699876e-25
6.83473365613e-19
9.41367675702e-22
1.80499088269e-27
1.98974124041e-21
2.16735299287e-19
4.7150689626e-10
1.86175717001e-16
7.57491475958e-10
6.08586309434e-10
5.62879190143e-11
6.10753188709e-10
3.91284904626e-17
7.37126863181e-10
4.56166692368e-21
3.77589557701e-17
1.36516326325e-24
2.62643902544e-19
2.26402651543e-19
1.49238033562e-23
8.80939296079e-22
6.5201554722e-24
1.69374494052e-18
1.51963826595e-22
1.54587118946e-16
1.55033485778e-25
4.91391300659e-09
1.01957335709e-08
8.64870808905e-14
3.25788384911e-08
1.39559441251e-08
9.3351477832e-09
1.35930531044e-08
4.81766858883e-22
1.35967228605e-11
4.15750792032e-08
4.67070771445e-24
1.04993790341e-20
2.25482141104e-20
5.84550419017e-24
6.34427930564e-23
3.73203450373e-20
1.59397654503e-08
7.77086253342e-21
1.89841554715e-21
1.61041757948e-24
8.77316436591e-25
1.5817558735e-25
7.14156569368e-23
3.19326977101e-23
5.87704466815e-27
5.1714569918e-23
4.89105511237e-24
3.20878771619e-27
1.51258335564e-19
3.40211011233e-24
2.0133693118e-19
3.80271727291e-22
2.37053620073e-24
4.54870490004e-24
8.87974693596e-23
2.97408878967e-19
3.36847403643e-23
5.63762604957e-22
2.32536605218e-24
2.13957945143e-25
2.53282702654e-19
1.6414704137e-17
1.66108401072e-13
1.65424483812e-26
2.28845140214e-20
5.1549880866e-12
6.76708480707e-19
2.64008543887e-28
4.51024867045e-13
8.10508692282e-19
2.94691181806e-24
5.53029451013e-17
1.25501678334e-24
5.09119895707e-22
4.85429139513e-22
6.40133951066e-17
5.75951540999e-22
1.95233419187e-21
6.77689463022e-19
2.43373439831e-22
1.74310315237e-21
1.15093327821e-23
9.18775026602e-22
2.3637659488e-22
1.64377228822e-25
1.43925874269e-26
1.91555939526e-21
3.86233440128e-25
6.67804270388e-21
4.63434860921e-26
4.02634560917e-27
2.33916609048e-20
1.35929906338e-23
2.37948119056e-24
3.01852033972e-18
3.33419577036e-22
3.98292565909e-20
1.50960759332e-22
8.31816502882e-21
2.13952208306e-22
3.49919774676e-21
5.14764070307e-21
1.74687094387e-18
2.82857270278e-24
1.20778945319e-23
4.38771254394e-25
3.76172563097e-22
7.91523590661e-26
3.26023057269e-22
1.59313178425e-26
1.06773696954e-24
2.45904376967e-24
1.54067209588e-21
5.16334592133e-27
3.37168992186e-24
1.18784991982e-23
4.41695808423e-22
9.76950857468e-25
3.82035602636e-22
6.65561395506e-24
2.65117477961e-21
8.06869741715e-24
9.81910014353e-21
2.36821096366e-20
1.61649016812e-22
1.35073754544e-22
6.79795384993e-19
3.22108405542e-24
3.14913684641e-22
9.03757903721e-20
3.17087510437e-19
1.11616462023e-19
2.11006943169e-27
3.87050065583e-23
1.01950545722e-23
1.02280684424e-30
2.00116897588e-18
1.81686948323e-20
9.67419624921e-25
9.24435973254e-25
4.14536938249e-22
9.71404600774e-32
1.55124293766e-22
1.07121737213e-18
6.23913184076e-15
3.55429360135e-20
5.83110886763e-22
2.97902136613e-14
2.14814246086e-24
5.54367990206e-22
3.67287261451e-16
1.86016363134e-22
3.03482562203e-19
9.20505529623e-16
4.71652785647e-20
3.61737985529e-22
1.40306532303e-20
7.71211657318e-13
7.83763848088e-16
2.47894137928e-16
3.03094084153e-17
2.41364776388e-14
1.42347947022e-19
2.00415341237e-17
6.88240185828e-19
3.45753080255e-26
2.34322227951e-19
9.14730403948e-27
4.06010607736e-32
4.4805554435e-20
1.36901448595e-25
1.42192584648e-35
6.22282083966e-25
3.97790280285e-26
2.03651068592e-23
8.70484831177e-25
5.45492382823e-23
1.56707007458e-25
1.77317041933e-33
2.91212282808e-25
5.15754292637e-20
7.21690403598e-20
7.29981258644e-20
2.93757070925e-23
1.86001364448e-23
8.9445960387e-24
3.62841734693e-31
1.96452372702e-24
2.16038584663e-24
7.68378646767e-27
2.60204144031e-24
1.50139420961e-22
1.52390167675e-21
4.46057708639e-23
1.25765193042e-26
1.25764676583e-22
1.00589179411e-22
3.39766032353e-19
5.82399415291e-25
1.72538576114e-22
9.62471883119e-21
4.30463758074e-21
2.06630247107e-20
5.78664089143e-21
7.69792406965e-25
7.27328685495e-23
1.31588177195e-24
2.07306557233e-25
7.25351174666e-22
3.33849825592e-24
2.68488966286e-22
2.41217582812e-23
1.10371322966e-21
4.06755589921e-24
1.35812949007e-21
7.43127400856e-25
1.25772293756e-22
5.53871663066e-23
2.03669032036e-21
1.03582977206e-23
2.4467773128e-23
6.77618710823e-24
3.50903679164e-22
5.80680925568e-23
8.81056275403e-25
1.34921331244e-22
4.60398100042e-26
3.20270259103e-25
1.68648072377e-24
1.12109287028e-30
2.77295755981e-26
9.49304783371e-24
1.08787159015e-24
2.85191176319e-25
1.43789719081e-23
7.63236303242e-23
3.64242404711e-21
9.24189708686e-26
3.51124186427e-22
1.36514848785e-08
2.80386529164e-10
7.9820343887e-09
1.28825124822e-08
1.93084121084e-20
7.47223268829e-24
4.83935909115e-22
2.95516201266e-27
8.35244147513e-24
5.23446560496e-24
4.88596816785e-27
2.91951012033e-24
1.7783663548e-24
3.15273612073e-28
3.91611851556e-21
2.97068342797e-24
3.43469983642e-32
5.41374101013e-31
1.19157966627e-30
4.87000987953e-25
1.07017952956e-19
2.22594012646e-25
3.6015239142e-22
4.22138654705e-17
2.86077381033e-24
1.51242095085e-22
3.62443724158e-16
3.21518735481e-17
4.99699806364e-13
2.8112162021e-15
1.35491916604e-16
1.30382863229e-17
1.5213038685e-12
1.12059502921e-15
5.30054591172e-08
1.25633143886e-12
6.50014131489e-17
1.60386966921e-16
9.6295982189e-10
4.13236712005e-16
5.59411747781e-23
7.24733693427e-23
4.95452365746e-22
6.58732612089e-22
2.61306467399e-21
1.59391677811e-22
3.35993197072e-22
1.27546178229e-21
2.79548923514e-21
2.6091073563e-20
1.16936094183e-21
4.12226997518e-22
1.26877605841e-22
2.23044771449e-23
5.33215254208e-29
9.94224920552e-22
2.23936571788e-24
4.54902638181e-25
5.38695159698e-18
1.15923572766e-21
9.24569063321e-26
3.3459420488e-33
5.76868962845e-27
3.226168931e-25
1.32161971957e-24
8.66102967736e-12
2.97929729045e-10
4.12761054097e-12
1.04914850505e-11
1.87815516899e-16
3.40496417488e-09
3.99978499332e-21
1.72366779162e-22
2.85135766804e-25
2.94831522065e-25
3.72902964827e-26
2.4456453003e-22
3.48598232682e-23
1.01570303955e-10
1.8242959755e-14
1.54528827238e-13
8.03546734354e-14
3.0641036894e-22
4.21610077749e-20
1.9218843997e-23
5.70480210714e-22
3.45473154845e-27
9.74687757572e-23
8.90043683805e-22
1.92308276377e-16
1.17157197172e-22
5.94380768259e-19
2.53640294333e-22
4.52343278083e-12
1.0710562601e-13
3.60360780446e-22
1.74299852564e-19
2.44314133897e-18
5.55200454268e-11
1.58234165896e-21
3.68816056878e-14
1.33315737052e-16
3.57822801189e-20
1.02157763511e-20
2.57755053345e-20
1.47160074652e-12
1.20048041431e-21
1.74990252328e-10
2.24302820339e-14
5.88056299125e-09
1.02230094599e-08
7.60577325752e-18
7.69994050429e-09
5.44257964017e-10
1.31632323033e-09
1.14454207552e-18
1.23154126074e-09
6.96706010311e-11
2.62947121931e-10
4.36488466101e-19
1.52745731452e-16
6.00871332869e-15
5.65276911024e-14
1.2463740075e-14
1.05336022472e-10
6.0753335962e-18
5.6581804777e-18
1.56199749308e-10
1.56105417171e-20
1.54939847357e-32
2.07140499035e-20
7.96029769864e-11
1.33157847674e-22
3.14611206739e-27
1.56564538627e-27
3.67339106694e-27
3.17811811841e-18
1.03340265411e-28
1.56454851636e-21
3.891450467e-29
1.54571058462e-28
6.60261878268e-24
6.66219462555e-21
6.38791220577e-25
1.58271271171e-21
2.01977604633e-25
4.58763169487e-21
4.51359860801e-25
3.86678126377e-25
2.9712367237e-26
4.55786705449e-26
2.09674092743e-24
5.42124844175e-21
4.93817066411e-26
3.84140589856e-10
2.0108056472e-10
8.50727930816e-09
4.1231453084e-09
5.76447174587e-10
5.50652849985e-21
8.97116487842e-08
1.10244999032e-15
1.21652125571e-24
1.05430313822e-07
6.03864552635e-23
1.67925093195e-20
1.96952095997e-26
1.3603819814e-23
1.7567742494e-23
2.41778683286e-22
2.03569177358e-22
4.15653912351e-25
3.02626624436e-26
1.75730827081e-23
1.10513565705e-23
3.98118005158e-25
9.43762577241e-18
2.93794327825e-19
5.47865721942e-08
7.06370772734e-16
2.47664718255e-08
5.98443741936e-15
2.65128789407e-19
3.59540667776e-08
5.99938001253e-19
1.5478970823e-23
1.07572922815e-23
3.21665748699e-20
3.97062217147e-20
1.4987778219e-21
1.22291250115e-20
6.42723771753e-22
2.60741833879e-23
1.32671008636e-23
5.31480901312e-24
1.39232224003e-20
3.3169874395e-14
1.27271717484e-22
3.96336003457e-18
2.04361385676e-27
1.40833399514e-22
1.48124025985e-19
2.07235068866e-21
2.18943185643e-14
2.61911119461e-14
8.58926425077e-12
9.2675541024e-11
4.40971083459e-20
5.86881461383e-23
9.38385315198e-12
5.90113931434e-19
2.98946500617e-10
1.12313604304e-09
3.80186716391e-20
1.01622764077e-19
1.78185415254e-09
1.32681407813e-20
1.7699865149e-09
9.6750926132e-10
2.11569973279e-17
6.07230440261e-25
1.88006533922e-18
1.6114902178e-25
6.41536323607e-26
6.00413673833e-23
9.41999813286e-17
5.39444923407e-19
4.08900616931e-21
3.43043930751e-21
1.61955095923e-10
3.35184474733e-10
4.91536174757e-24
1.89113456532e-11
5.02930178693e-26
1.31815338502e-20
1.99343262075e-10
3.22308061781e-10
1.67873348488e-20
2.76836471999e-17
2.98459089663e-28
7.81807823189e-29
9.03901994329e-24
2.46808470116e-21
9.75180293828e-23
8.07577109452e-19
4.86810652642e-20
1.46687728125e-24
1.56109193314e-24
4.70798460237e-24
2.24220161877e-20
3.17307185978e-17
2.09752340479e-14
1.21963569699e-22
2.1549033476e-09
3.99199314535e-20
1.22183047697e-23
1.00252282599e-12
1.7619666962e-09
6.49010862893e-20
1.85657422904e-22
2.10617638386e-23
2.12224263489e-15
7.31817186223e-26
1.75174067233e-21
4.65253926807e-19
7.41207173513e-16
5.37380729764e-30
8.59098269874e-24
1.17548578172e-16
3.21671350556e-22
2.81082419686e-20
8.1153177746e-19
1.5531385817e-20
2.05447398445e-25
9.61546104508e-16
6.35971601009e-26
1.37898621761e-32
1.07671085935e-15
2.93929229378e-25
3.18157015966e-17
1.18655089311e-20
1.21098205643e-16
1.71684880936e-17
1.60899157922e-19
4.34126584649e-17
3.57204640123e-20
8.88233634645e-17
6.1177729563e-22
9.44200800753e-23
3.8614583114e-08
1.99246574199e-22
2.11709351336e-21
1.20945021136e-17
5.15221986509e-22
2.16360284539e-08
7.25285759492e-19
5.33038395904e-23
4.59256678023e-28
1.0829796915e-27
7.14347492862e-11
7.33577939077e-19
1.66758116951e-11
1.61094666931e-17
6.34447662808e-08
4.50347546319e-10
1.12180115214e-14
2.34482016018e-21
1.07737782399e-21
1.78202265376e-09
7.68081411317e-20
1.58393658327e-09
7.72098887106e-10
2.34164687053e-09
2.42948730471e-21
1.11247168226e-20
8.60736910346e-22
5.24661245854e-09
2.8252021971e-23
1.71184354249e-20
1.61429058136e-15
1.6556127908e-23
1.69932438952e-20
5.53808846059e-22
6.71782410041e-10
9.03718806104e-25
1.02071096922e-28
2.87148539151e-26
6.81207164186e-17
1.57371744669e-21
2.52224410774e-26
4.28267568391e-21
1.51794038784e-15
1.08882147056e-25
7.30828102177e-25
6.81632783448e-21
3.98242332579e-19
2.61575452106e-20
1.12638046625e-24
7.75133557125e-23
2.07842205545e-24
9.50126840649e-15
7.99416360463e-19
5.57665854491e-24
1.22064956485e-23
4.22953756341e-23
1.04065265139e-16
6.51082934882e-19
6.45469819539e-20
2.40717077318e-17
4.54652041873e-25
3.03905328892e-21
2.02314525682e-22
2.67734869264e-23
2.28202645317e-14
2.96128463501e-23
1.57002126394e-32
2.56428932584e-33
2.70975201131e-26
1.39134325732e-30
2.39144846625e-21
1.77426190916e-19
5.40330475146e-18
1.49920149839e-20
2.36653354956e-23
4.91285596768e-23
7.07006561368e-22
2.05575427654e-22
1.9114273834e-25
1.57441461344e-23
2.21373547829e-19
1.4821769591e-23
1.14235394766e-22
7.21704171787e-25
3.83911446881e-21
2.5714597687e-29
7.13137815239e-18
1.35942977039e-22
7.94872357849e-23
1.40589670084e-23
3.21156660523e-22
1.54506014417e-21
1.52569426078e-25
2.48163509646e-19
2.04341717503e-25
2.36235196141e-26
1.98907557745e-26
4.07119862216e-25
2.32482366175e-25
1.82568579545e-27
3.48564371411e-30
7.69952998341e-40
5.54837768885e-34
1.24089158317e-34
1.80442500904e-33
1.72466075157e-23
6.3063999199e-17
8.07699486861e-18
1.96457683652e-25
2.39893230643e-18
1.54970484927e-29
3.2526947045e-25
3.39909537754e-26
5.0427903567e-18
5.51152776127e-28
3.59033679679e-30
1.92384815017e-20
2.39757359546e-28
9.14358665484e-34
2.01356979764e-22
4.67439133936e-23
1.74094912549e-26
1.32403878323e-30
2.41816892758e-26
1.91402624774e-29
1.47750316131e-31
2.48743205632e-15
5.9372712066e-17
1.29396902993e-17
4.07316643706e-16
1.63029183218e-17
2.4987014563e-13
3.65822093773e-18
5.68995652227e-19
5.7885637152e-19
4.61088329882e-16
1.85075370672e-20
2.77328750275e-19
5.16592051179e-17
7.45587565393e-10
1.35066227959e-17
8.31831588729e-20
7.89946962745e-10
1.33143985544e-25
1.41826031212e-20
2.62266255525e-16
1.20186535193e-20
4.55534038001e-19
1.8794478928e-18
1.12185310273e-17
1.16214196736e-09
1.52056040965e-08
8.3931281893e-09
4.54996569266e-26
1.95731188244e-08
8.34853620388e-09
1.52749551922e-10
1.59988801389e-08
4.16923741344e-19
9.09045450626e-27
1.44959002404e-08
6.23806706776e-23
1.11669485642e-25
2.65464647682e-33
1.08898839577e-08
8.28892723618e-26
5.88581440094e-26
3.22287784859e-08
1.31043044194e-23
8.7836938755e-25
1.26030495396e-23
3.88901136214e-24
5.54697282766e-08
2.31222458416e-20
1.7494344308e-24
5.48940021463e-25
3.5519941996e-24
1.05572816352e-23
4.09673006531e-08
9.55243430366e-17
8.93992956982e-10
3.67558604257e-24
7.47332741329e-19
1.52695605396e-08
1.00204310804e-24
4.49845043496e-08
1.88803993134e-19
1.7630581763e-20
1.51994300235e-23
1.1302114933e-23
1.26370405036e-24
5.92618220638e-24
5.44493845849e-25
1.49636722543e-22
2.43878210406e-23
1.36221750268e-21
6.50771327027e-22
1.36110260194e-23
1.54771471301e-23
2.84109444161e-25
1.97242374703e-24
2.36685223823e-23
2.79793199446e-23
1.17388090294e-22
8.87568276438e-21
2.11742019986e-25
5.4356186669e-25
5.47735300992e-26
3.78878424878e-25
2.66694587664e-16
8.45186134732e-22
3.66491088076e-25
1.68885715181e-29
8.08664278823e-25
4.17932575582e-24
7.68033043988e-10
6.30668513776e-22
1.43835681265e-26
1.45714882799e-26
3.41241103098e-20
8.66707931319e-10
4.64491360654e-25
1.13499056512e-22
1.41168280599e-26
1.38427285947e-27
6.02067554176e-26
2.14710840426e-20
9.26075011725e-23
1.49040808008e-25
5.47094968039e-25
2.16598482166e-10
3.2256045242e-11
2.22735867195e-25
8.24117409479e-30
2.12077604223e-27
2.41773494505e-29
1.93592679549e-28
3.19820139756e-23
1.71959343964e-25
4.09566040765e-22
1.10822321338e-17
7.47294864068e-25
1.43561530337e-20
6.11356297752e-25
4.48257009178e-19
1.17998116109e-21
2.77771652596e-23
1.73698328264e-18
1.58442704827e-22
1.30302629967e-21
1.02438626452e-26
9.19741983445e-25
9.78460982242e-28
1.72170734342e-32
1.24795081187e-25
4.15743885064e-32
1.05898462348e-28
1.22961478442e-24
3.60920859792e-29
6.79385647951e-32
2.23242366985e-29
6.38693276137e-33
1.05054245998e-24
2.20291622401e-24
8.26033031827e-23
1.49172166569e-28
6.49326481035e-22
9.9790933313e-28
5.24680158129e-28
5.88390634013e-26
1.88658713696e-23
1.14218890267e-23
8.38833413442e-25
7.34128558546e-23
1.07532361947e-22
2.34050119412e-20
1.05799064455e-21
1.69451985335e-21
4.60157459183e-22
2.16571116858e-22
3.25703071745e-24
1.33922073002e-22
2.00318577561e-22
2.92122255152e-24
6.25763161453e-24
3.03614778611e-23
2.09597457428e-21
4.01538598608e-26
1.19733745071e-22
4.5095390128e-23
8.39469651017e-24
1.9800184658e-23
5.14246073553e-23
3.23542347009e-23
4.31467460559e-22
1.32249075946e-25
1.37590613977e-26
1.30141048369e-22
7.55257498528e-22
1.39627263172e-22
2.20781437182e-22
9.23395592765e-26
2.54700187356e-25
3.54386750912e-25
4.28645579535e-25
1.0250005235e-23
1.49086797597e-22
1.81214058824e-21
3.07039958815e-24
1.43044007947e-23
3.57163404786e-26
4.79006432776e-25
9.16600165836e-24
2.49816422964e-23
3.47401693696e-23
7.27802825305e-23
1.22967459268e-22
8.36472157091e-24
8.95805295539e-23
1.11630097276e-20
5.57311111706e-22
3.35250553706e-22
3.14076511243e-20
2.00448570425e-22
1.47628570081e-24
5.71200034047e-23
7.39418389074e-21
7.69681524555e-22
4.57975074568e-22
3.63749034529e-25
1.54353381706e-25
4.90224258573e-25
3.8023744748e-23