/*--------------------------------*- C++ -*----------------------------------*\
| =========                 |                                                 |
| \\      /  F ield         | OpenFOAM: The Open Source CFD Toolbox           |
|  \\    /   O peration     | Version:  2406                                  |
|   \\  /    A nd           | Website:  www.openfoam.com                      |
|    \\/     M anipulation  |                                                 |
\*---------------------------------------------------------------------------*/
FoamFile
{
    version     2.0;
    format      ascii;
    arch        "LSB;label=32;scalar=64";
    class       volScalarField;
    location    "0.01";
    object      omega;
}
// * * * * * * * * * * * * * * * * * * * * * * * * * * * * * * * * * * * * * //

dimensions      [0 0 -1 0 0 0 0];

internalField   nonuniform List<scalar> 
29767
(
9772.26701117
12780.6906453
75359.0496562
10156.0502384
36921.6670344
13732.2231439
6307.45048959
15764.5452067
17589.4226535
102846228.802
34757162.79
2439951.99058
236609.786425
4043643.47006
523470.935051
203022.275009
5295475.96483
5028678.15062
112826178.055
3465228.67754
149698.532912
47208.3351093
63032.5639804
2325042272.18
734958.049319
137462226.933
3467901.13667
2.55825471984e+12
148000613.216
23844844180.3
4703890.14407
42175210.2379
116380867414
169453503506
2722610.85731
152056.168652
249900.286579
1045397.60397
107420.361339
10493.5555688
8323003.89299
132609.399569
610131.956696
2110695.89678
224878995.859
1747992.06471
29482277.7239
20331385.2732
545624.688854
192911.908759
50063.9461536
3105844.19577
61338552.9263
140207.167804
4413943.39277
5799029.73604
1164792.65296
98137.6618765
408834.539908
144955.526223
253376555516
449415655.75
5981129240.66
1173738551.72
2179015920.46
4.98183139953e+12
89976609709.2
16347343.4317
8543373.99122
6996123.36126
1556604.89624
1785708.32284
130964208.613
33873091.9752
16705500.1582
1560054.81221
2297695.19505
1286921647.4
108645225.545
276089983.645
2456535.03582
1959393.95361
4711596005.32
1732730.32276
99019814.4186
95139209.5634
12594266.8467
18664902.9497
22412705.5658
288487667.915
11829334.0728
17180587.0924
12434958.5584
6595589.23142
57314202.913
7331919.4575
654893037.288
9450363.72579
5949874.28911
56717958.8794
1.30568904447e+12
39922512.6291
204624899.758
1304681.98661
468533730.604
11084107.6176
99729194.3996
530450452200
44226204.9167
472723284.21
7385885698.56
1022525709.3
6932389.70541
3932314.58202
110025322.154
82896833.5922
99099717.6971
3147734277.45
129176522.136
19959995.5296
56336078.9138
1295232.32057
50703816.5003
297049381.599
4262301.06855
102497695.002
1869568.80565
4824685760.54
2848513.65269
4901838567.45
38465618.8568
12904658.8607
1297638828.79
5980197.60021
123441496.688
89245316.1941
1078410431.53
1471058.1961
9494461.86795
73342063.8578
109156.589979
2592921.01169
12857363.5589
51677818.1381
141798035.353
13084.0687092
12998.8804834
13922.6284694
9587.3083039
12530.1434754
4961.27445572
4273877.3558
2885227.57747
580229.584789
13099853.5004
12359028.0446
267972.414314
5844429.61376
1050146.46797
67587.6992766
101466661.144
3871811.34986
207929035.393
8896055.45824
151009.713739
14475377.206
242444992.223
13683697.64
145424386.801
1.71719006781e+13
2746417402.28
162412304958
4.52246323328e+16
948589577.009
2.69482724653e+15
2.77412732938e+14
1933732340.21
34264836.4122
28116140.3175
2522487888.79
12546135014.9
180168356.295
173574300.323
8046338915.74
375139743.763
15815942.3702
72913869.3518
90290525.402
126321198106
46825936.3515
6197222.37378
4793753.17677
2170971.8445
3761203.58936
38937930.5375
3091961.46046
1455946.0926
114028108.002
199014524.57
44163435.0886
3104898.82091
953205506.998
72298650.8573
35587173.5042
10439.7215507
9698.23420141
11363.5166309
7247.93842802
14154.4950915
28773.2504505
47784.1096368
31631.8000973
18820.1495942
7486.84735626
110545.888684
44023.0987193
11730.9059958
33722459342.3
1.59885959844e+14
336421017062
14445237421.4
236493455002
3.79753166606e+12
4149916512.67
30210581044.9
4.27924478499e+15
11099635558.5
12204165900.2
2.90791015905e+12
81302551459.1
48320.288848
18650.42045
24307.6261736
13250.1978963
10689204622.3
23937542.061
1034065611.66
8301469.41964
918818579.707
1535178524.42
14556629.1406
1373786247.35
2440320.10276
15384688.6416
1781014.31462
24053341.2767
8478625.65012
9726347.70552
2386043.58659
17651774.1518
22579389.5704
18748308.1873
25578207.4236
117160534.644
78189742.3495
10334311.128
139947.908408
513889.092977
98117166.8032
23930448.3145
587701.504829
5527541.41404
100086463.493
35251296.3309
12912579.5171
91678058120.5
47708478.5038
2739692.03292
355843.905016
1321571.46649
16678259.7473
7388216.96976
39806.1244175
18008.7189435
5789.36632709
18444.2444755
100905.070844
22014.2624707
21410.7649029
24925.7203132
40496.7906943
118597.40181
26224.0157287
66494.4641524
1636732.28923
15069.1876834
90207.2368592
16994.3825571
53195.2103458
146036.318996
18644.7805041
672532.316604
84701616915.1
268238845.076
8329137381.35
243366.579722
16368552.729
79182256784.5
2452695.98282
37849.8477191
15017.4640541
9602.65802635
63562495.0404
143946.744811
50577.2777076
15135.7407032
15359.5156126
14043.8415492
13088.4127169
39082.4957143
16983.6684396
25266.4699158
19025.3667537
3829434.74011
459646.477123
54823487.9617
10424443.0855
695177516.552
69648546.3606
19372790.5866
5544369694.47
13886.152689
14180.2559766
15677.4464735
4942828.4246
1.26032729944e+12
3174240.45759
17640.6992017
931.625085682
16378.0652159
4380229.70193
6291496822.07
7193329.24687
929123.947088
30989012.7215
658279.130047
1.0234699791e+13
3498888.26259
18873.0897803
2428384.35444
509035.320643
373281494515
74007683.0859
332270595.699
3671983297.12
9231894.40231
4.28314804143e+14
2057302.52015
3651344.41313
423076.345659
3561364.92531
1698990.18797
1623939.38424
48727270.0499
10069114.2309
7050148635.16
101354299.648
4895832267.54
579439220.177
504986644.638
24740242.3902
17721776.7278
78206485917.3
1345094.707
29150749.9678
49059393503.9
408150.310944
41923048.684
9.07575435533e+14
12476.8300688
1371241362.31
8960058.11434
67076331.9526
7601725.41914
666599.374123
919543.687178
171007.231451
79499.763529
28963825724
13429641.5894
101434.30434
243604276.061
833596212956
56407439.3459
60311794.7631
28757525.3161
1.31478675645e+12
15149609.2727
260778071.991
30724920.3174
3597835.18487
3008030.88664
1092588.00458
67784161.9148
9964467.38028
1582087.18251
25420107487.2
8259012121.06
8.37010178638e+13
510238509.457
15672079.8541
1383377.54317
557723.696616
6926894.41831
34001.1364742
348523393.178
63231065467.4
2351188.72336
1018285.58717
46843551.3882
657150.642968
98374780.6846
3162530712.57
9346973249.86
1.26178436533e+13
670872167.179
1.1955091458e+12
3.26487394319e+14
20173254.732
5742249.86967
14847411680.7
2000891774.78
76812.4649908
3.38771600421e+15
2.11777743139e+12
1224982.12949
800445873593
422808.327198
2083196.23109
3.08234009389e+13
468027902167
1102022609.47
1723525398.03
644952540434
1165679944.65
123061215450
1314819593.63
3203724882.05
1.18364323355e+13
64202.7257038
702908131.01
909529238472
18310406348
8.02858557676e+12
5.75068906673e+13
5189306454.72
136837849.117
1.56699931862e+15
5358625.2969
9422925.3891
377792866.132
2.17733893104e+14
72350770.2647
1936510003.54
124212589492
6.6620515065e+12
86490030.9886
6586125635.74
10558435197.9
6.36709365192e+15
36282859.4812
12780079.3636
38011186.0566
473149667555
88591014670.7
24422899.5314
950849432.968
1.25786574666e+15
3.70754438641e+17
146501.794136
3.64307604361e+16
9.44280314117e+12
2.66513065209e+13
2153296495
5.21510832747e+12
82555678068.7
622395966.666
7.21835877741e+13
2303870282.9
1.58422641962e+13
1.16886088686e+13
480751.12351
6377472.0408
6838714.97719
9290857554.2
394820.624847
138180991.487
15905.5511098
9105.38962057
13220.7783248
30289.2517398
193348.561199
239381.003485
48175.4195486
16907.089612
18356.9809569
65913.4024649
299271777.391
22902991.6881
11331405.2597
785216039.452
15857.1300409
7438737.39146
808309.019979
644212567.452
1031167.45874
246295139.325
4957761036.44
627976733.798
718630902.246
709852635.285
1379183588.46
3929655.06227
15141366.9458
2413701794.33
15567459.8903
40257756.3219
1832377129.41
2.27152743213e+19
3143282.4024
4.77345894673e+16
2.63238501803e+16
2.56521402526e+17
7.77432551582e+16
1096562506.34
35286666.9424
366721062.135
4.75712786087e+12
480965.199271
78974911.7541
403746.550708
570813.563324
465058355.07
129385.637091
82855.99897
71705.3338765
5544.02205806
22355.324831
10206.2215552
17452.2654725
13471.3248046
17135.9083491
49731604143.9
864763.08838
1014773.5798
14203075.8023
9452556.83303
225324.534559
15375554.6327
37420084.4837
25368238.2895
609927.217302
36055066.6021
1142243.13958
4176100.57229
472454.525972
1472173.02034
536110.103724
31781421721.7
50035.9435743
1.13373924991e+12
7.76226764654e+17
889307.364553
898104050.515
5844071019.84
422707.205838
416864.135427
9340577797.5
12277781.874
128503655.12
34915590.5314
286041725559
4.96406199062e+16
86968900.6435
21938681.9817
1.2402479763e+12
422707.892779
394746.608411
103247453.987
376474.077137
8792572.08616
117899.378948
689090.574739
194092.80149
8804238.20602
1241617.75065
7695824.99552
215597.246993
82046.8768904
364186182.877
187078.53983
1949067.78742
4530461.15381
8545423.40863
49014054.803
5181338.89044
425473.310554
2737818.76637
406070.12593
8.10680500108e+13
178292268094
456134908.921
37937232.7933
101148488885
4.66822076256e+12
19903432280.3
6980041.73956
26683173.1667
271033778.674
2327979858.99
3139983.89935
257051372.957
1462410.3052
1681129169.98
893740174183
390293586.135
9409521.83404
36896327.0509
7.05320296063e+13
49658128219.4
35888974976
860620000.57
80909658.4879
2453016.27455
15582484052.7
54568938.1435
1325850852.57
21805569413.5
8492177627.36
25943558899.4
941777044856
1.84273012544e+12
5524432.86665
200584718478
127051983.993
8199450.76976
3728531.80441
1.84048885187e+13
943896.345459
6883290591.9
7821391452.68
3068491.49442
1493901198.26
3199970.42788
96283357.3551
3.28049411059e+13
718842338.336
7158573.40906
3341631.26988
1368538.20751
1054622232.52
6727325.41959
9595175.1858
337346.297924
18066281.7839
8923202.83095
812292.586408
12409508902.3
1788537049.21
14603616.494
841639198.935
5303174003.63
6228764021.35
13573501.9622
6.2722881601e+14
9511924.2692
124104861.532
2526183.81819
8695192865.72
55634040.2644
8802232.36873
2.88267489347e+16
2.50787238099e+16
8.16345079697e+14
4.27792969016e+14
127277848269
4.34738482169e+15
1.54067562921e+15
1.14086318335e+14
6.8752459908e+14
36623120364.4
597645004.518
128133823.525
7.09658221904e+13
649872396894
1.71664605965e+15
3.19898385544e+15
12762787.9166
5410524341.74
45666769844
52075177983.4
1.07336129976e+13
6.7520852513e+15
3.55931400604e+16
1434099682.64
1.63307549871e+16
1.42272296898e+14
47497459265.5
115097909.583
939183246.954
52989323.3489
19477820.1285
66388707.2557
9.50988237617e+13
97449673.0573
4.86330898176e+21
9.52839156797e+18
3344782.1122
11867463.6203
115349830.532
1341939.01149
347778099.97
46017077.4843
38706725.8392
15611074520.7
8808428638.15
9604041910.64
173069899088
3708720166.88
56976663.036
43697214956
848843477.178
46697260246.7
1.1313724014e+13
455131009376
2089137102.8
1.37476309494e+12
4245037363
88008806674.5
649546516885
5776870.26815
97009.3192017
20089303.6013
208797.229652
806433240.035
102385166.533
896040529.323
1464433111.92
501204507655
133843680014
64755563.2383
13039173.3002
3283995.65144
989842115.433
9147755967.11
568375.727903
5005370348.85
2061899859.76
130722707.902
478486697.839
333898.071338
211649445.853
866265384.558
156018395.155
11160021.8577
7396594.612
137645196841
2842704356.62
320611420.336
8.29522669072e+13
4.55671413919e+14
4.63632463431e+13
20473689985.3
422705.796633
47536374.2233
422706.795439
422706.275385
1092394.52453
422706.282953
258269442.486
416789.704697
4.39657261134e+14
236927297.395
2.95088079346e+12
59570164.8454
960697817.796
8.9412695407e+15
476080551.023
1.41224699954e+12
1262854465.87
1016983750.03
103912745996
1.51696282078e+14
1092631.44163
416822.277933
9366811.97236
422817.94677
1121248.89044
422736.754145
536168.369153
28015661990.4
43096429.441
422849.375758
214100316.512
9.36634165335e+15
23030793.1848
52042292090.9
15762231.6393
497979532.661
1071321.7093
634557979.757
193670821.103
18433668868.7
1139839581.58
6322088109.53
14002531.6981
31315863.4162
2.57926211158e+12
78907496.1116
204454862.402
311644174825
2644634.17007
293935224.606
2617874.4986
43807615.7904
421845487.823
219842795.252
11261582.1961
7621311.79185
1190293633.93
3249199.15542
454271076.884
4673815685.27
35972654.7831
75514793.0803
41942.6521235
60450543774.4
92504101.477
1e-15
289884478.96
2.08470161173e+15
242142.225709
103750962.762
163644724248
307578.397628
53078166230.5
98858002.5788
53979533.432
5640215.81142
42674967.2782
2829797137.95
97027053.7752
20247553.9306
33407037.6762
22018741363.8
87732273.178
732730045.364
104099140000
69480210217.8
7601970.15268
1.1679248988e+13
3685121847.56
504191293406
1.33061099982e+15
62944595.2228
216509812.309
1.1552036231e+12
1948395.03198
9346501317.97
682451364.68
2100590991.81
488102777.636
330177464505
35262919.2564
169773142.12
92885421.0077
997595385385
703923022419
206679899543
2658354.43118
19582518523.8
254770567.07
62769446312.3
936560247.07
3548416207.43
649067.379536
193672865471
296587178.292
84185719.3667
216458777.412
829300411857
2617557.08918
5.93529421583e+12
381151830715
123935741.83
67887525.9187
14943943137.8
6186242.38935
9543188.56095
1075288001.88
880422228862
3079220352.81
10475174192.8
37645895.3504
30407368.6342
473918054535
51863690.2048
98086772.6522
9.77701709403e+14
3140793.50013
9666540.96206
42862480763
1081740681.81
131264868.658
1.02943716676e+16
4.81130502889e+14
234374265395
5449601.32457
130909.896311
11659200639.2
13179263.6369
1.34764064428e+14
55662381.5714
33535081.3318
1.42132832266e+15
3374294468.19
31934068.5818
2.79394808958e+14
930118817027
3.19796281541e+12
25961069.0972
6051066.08822
6253149734.16
37251763616.4
944240437.655
3.71571704779e+13
527361316.082
112086238.971
5.07181253192e+14
52403997630.6
9.68176756321e+18
7.62908096258e+20
4848768425.89
7304524607.01
7.03271554191e+19
2848473547.38
6.59081395239e+12
256798311.786
992122708890
1135180421.31
6381335565.16
5.63961584911e+17
3433921091.37
19389.0775952
13856.3571722
13698.9818322
34041733.7649
53763046.4683
111799347.413
2.75602254202e+15
509029229.959
462880277.411
130144168400
384313633.33
6660475.93362
656210.315439
22418623.8828
79513256077.7
7951358.26027
9941427.15798
2943.20180588
1717034690.88
5795805.33539
103899.139033
232307.594134
48395.6252293
172811.829654
1299051524.74
13748942.1213
759946692.261
4823774092.57
48246280.7024
299535876.116
3724547.84207
4930700157.95
4875773.6063
506686979.801
499559427.446
1345664281.59
7950876.70058
18054723.9854
490992.660987
700482620.764
40870086.3282
147575617.973
2849784.88223
17221161.5014
1135001279.62
7411726.45408
21720332901.2
3122362978.07
592950744.058
7.45909680968e+15
36062578616.2
105340246.622
181377958187
3506419844.07
69546001.3686
13102102.1373
274542.444006
10902042654.2
203975576.145
422767.699592
32244.1809768
416821.879516
397691.258597
26154428.8115
133828808.834
103144391.355
338390922635
119725472.244
191041469.267
204667727183
342523217.521
1417052010.68
3.17184807642e+12
1367586322.28
4446624850.89
4.66655251783e+20
1.21712806309e+16
8.39222108525e+14
12766088498.4
2.70578969308e+12
29849301869.9
4808259409.21
8406237399.83
10882222143.7
93354232.1646
6261381.02633
4511603.68922
211972.539912
1406190.44014
3669726.3858
8002618.31996
986609.941647
5855391.94325
422889.311947
47478868.2051
20521269.7249
17404374.3234
864835.434992
29760304.698
17875920.6249
81789856.7355
2018357.50344
1518066.63531
382692.403274
6273853.27598
2976250.73577
784029.763876
357719.138185
38327.2845246
855167.950485
2425847.90909
19063623.3462
44834048.0481
1.87541521385e+13
36971943.4932
446555018.69
3.74205842016e+12
42043910.174
85607656.6405
10815849671.7
1.54474804841e+19
173349593133
3099651696.45
756647305.723
1130776.0377
1163753.46232
510760.833253
649194.31063
10165567436.8
143366.632303
92171744.3079
6452785.20514
3507101235.35
3391767586.44
26816627764.4
4088900.38092
802407576.987
1570810.07965
57814061.8671
3174852.90479
34940644.8724
30412218.9047
26852671.0358
52032265.8405
1752909.18286
289458091309
10259695.9101
5517225.16185
2835641.97654
143165193055
13325443.8957
6656927833.88
8724326.69857
3688501.22934
524644092.233
1846424999.63
8055686563.23
1250358.25959
18496071619.3
13852734.2354
86968739.4658
1519303982.25
289713748.125
992483622.78
356993.955153
2.33528878014e+12
1236355.10991
31773518605.2
408071.313652
422747.789521
6089299033.07
422738.976887
1092653.73598
422708.747175
159204073.358
397646.300553
536080.263114
422705.068236
153715681.528
30529198.2444
13065400.8825
459784.384211
37624135.9711
422712.451385
24860549.1209
7304798.32456
416795.467357
1099131581.61
2.85711372896e+20
30565751838.6
536053.172117
408462378165
1.56768114182e+15
2.46221813765e+15
1.67579277002e+12
17161025466.4
3.85804927567e+15
934575276.459
4.78469229465e+16
2.18387149766e+14
92308236590.7
110728172.525
3536159753.68
2.084541283e+12
4951043962.62
37102211.418
102434243394
6.50386819568e+15
105486478851
56534866260.1
476930643.609
17370462104.8
20250413929
36128.9071792
157567.534751
46383.3586955
422718.550219
1163567.2209
6113736114.82
417096.212854
5842212327.12
1.23038372759e+15
395085.446874
16560004.9819
6.66319115599e+14
336926504563
73508765.4551
15796277987.9
1616772146.96
4912335.02526
2405847678.28
371430306525
10918333514.3
162390445.537
1.94886326296e+13
345033327.825
2035721035.31
422895.535253
27054154.9457
422790.655623
5133248.87234
378225864.072
536239.227423
3.87371951043e+13
64603778.3412
734013880.695
813640132.053
1448719128.77
9617295583.53
16158294349.1
368959875.191
3512173354.03
964578119.357
2.13990781489e+12
2128624861.46
24674.9075476
446643368.645
1868087074.94
1.20206665016e+14
7100588.37924
366689545.445
1.64314214159e+15
2268475.21863
1e-15
40389.0788495
536081.427675
236214941.454
23809049547.6
1163649.68072
109061820.918
422713.127583
422716.006135
10292952306.8
168978826.333
422718.306779
3850849643.01
416801.040949
422715.462594
739511714.432
1646821262.07
2439231828.76
151031137973
15587581921.7
1.38057624521e+13
105780681.898
464960586720
47493633444.3
6870961443.21
394769.182727
422713.254147
9169160681.28
1092559.12406
1.83167571711e+13
481052527.01
422712.779712
422713.209175
938006462691
1361543634.68
1.66147908897e+13
5.72058479223e+14
1120531036.94
25396077394.8
1.53508644826e+16
31281893.7668
354617307.311
5759239835.02
640577264.393
212405112.688
2542958700.81
6666184.6752
11517613.765
1.97449497877e+12
422719.609698
3436440542.51
189455197954
6243306.53623
394743.678205
56183068451.5
3289669273.36
389296642.774
2123483.28861
3.98550599658e+12
3329587395.77
520473046.781
13881876920.2
1.34507398499e+18
5.91397190294e+14
1.64731375026e+12
338536897916
1.80861834116e+15
2.90664725669e+14
1.43837994626e+15
1.35908572444e+16
158021014783
9.87080502367e+15
6.9062310354e+22
36686391315.7
3.00059565467e+20
7540202.79061
329730343.348
4105905.85686
7555492.42284
13448866.4702
44694982.5367
2377638953.72
5137438694.32
31107347253.3
3449171570.7
422846.968933
1.18867104684e+16
8.37393643172e+14
1.50314592971e+13
1.27518925254e+15
408112.966308
2.02662073197e+15
8.85230220987e+14
9.51644502316e+13
2.30014017463e+14
1385290.67036
472489.338348
5984282.51105
790502691.151
417016.263292
1079643.21726
394165273.48
6822651021.32
3357221742.67
422718.307367
189253176.784
422717.615529
422714.780106
1079660.08838
3.9072383686e+15
6.51537692734e+13
5.47584815146e+16
1196637.77398
14779545181.6
3087365645.17
2109033708.73
9.18193951661e+12
796058615.723
7476060839.7
1131457.63507
9.28054242226e+14
5.11285197944e+13
4.72167352749e+13
17656986200.4
363317742.758
39647233070.4
25728452077.8
86155375.2438
393977445112
1368310820.32
11944029.8514
357166408.243
391824444.339
47672976164.1
5035097357.6
481134232.278
117212493.43
52890430936.6
91080524706.5
465656019018
44187614323.9
534529217.711
544540550872
1059010353.17
19337037865.9
2.52648862198e+13
23941604.4069
4942798.82588
37350383.3381
14757120.7743
205505898.642
4.7376032713e+20
8.94129901149e+17
1.69312529595e+12
1.26466550947e+15
315039429.481
11389198.5537
488162.690247
66702.1745292
42255897.88
20354759.158
1414414.03042
132830216.443
5231692339.89
63515670.6159
1284963.90976
130765605.918
8753854.28523
1385609282.99
4702184.35183
7.06783540243e+14
2713934.58819
7356025.45848
12580636.2509
71128981.1978
3113745.16839
42902681.626
6554393142.22
5180330.80181
4893763310.9
42330694847.2
50274610544.5
4186127719.22
1.1380575406e+17
547739376891
4.80982330534e+20
1.22838856107e+26
1.80232863745e+18
1.16229760901e+19
5.54193161251e+17
18894919921.4
225505733.088
9242333.65859
163875048131
11528908094.8
9.65244282708e+15
4515477603.17
1.09172994346e+16
521449985229
1.81437895864e+12
4.95075240342e+14
2.15506173429e+13
1.01404010473e+17
1.09366273624e+18
13364934979.1
117664221.282
2.0596420391e+13
7.5526488549e+14
41353603902.3
5.2245887494e+13
7.19486296663e+16
1e-15
9459547.8265
1297991960.04
365366515.192
455393322.551
2863364.27866
188461738.033
25718640400.7
7271059460.08
60447.2230161
12421335.5805
2925362.53315
38757759.9268
422706.753865
4713678.37783
18067357.2251
422706.908791
7510665959.97
3331549.96504
414897.409399
123817525244
20161863.2459
689261926.792
591895830277
489914.511625
131796.097765
408062.345187
2.49392851022e+13
116161.069323
422733.308154
2088556.0699
123591.420845
1.1524039187e+13
1.25005432462e+15
125702.044478
6.67838832287e+12
1.72132620156e+12
3.76697993022e+17
233659.26779
3.80394962928e+12
3.04861030754e+13
131015.40806
103180075.046
1164117485.19
1151146049.9
154969015006
111468.904728
367637736572
9120707820.66
1821692645.65
296803460386
1.32326205752e+12
114859.310547
84504959.536
1163630.83498
582669254.094
166583037.415
152903.770131
367069199378
117697.217697
30972977914.1
529295416.644
212089829022
88479015.2931
791324519.153
168742702.329
1836568048.7
170848139.354
1329808369.14
734097.159986
1536638.07619
6.28302128016e+12
214842419.336
11864470853.5
506990448.43
42250208.2661
35740682.8322
8518751.75321
4755192914.06
22859967764.4
1839716987.67
18256993810.5
5.36301431623e+13
220463.525484
671464660478
2728579309.39
5.92116390025e+13
199932547015
239273045.086
408036.637802
1.0932100067e+12
69523778189.6
127598037668
11400891349.7
416790.150927
2152892571.76
2.57071468331e+13
70837442784.9
1.33756117776e+12
398751616835
72176037.6072
56038067615.9
6709571783.48
1827836222.99
536109.115108
1163561.98922
2.6984414688e+14
1.21341933625e+14
471525507685
3.59281050412e+14
5.16548457478e+12
5257124320.32
8355234532.43
2441608.6796
7841279.92911
501005279992
47205579357.4
169464597461
5458419434.57
497999021.69
13463209681.5
696006091.984
33569725.77
1351370809.74
97619426834.7
1087261447.23
1.02201315959e+12
1.0551363281e+17
8013136339.13
2.40532701965e+16
9.44300774373e+12
813262830.5
1.00873616653e+14
1.47191805275e+16
4.47943646857e+13
1.56569677083e+17
2209557832.69
46813314296.3
21991154949.4
2.16298132645e+15
2.78312113289e+12
1.00209504691e+12
1.90592303617e+12
1.18662881043e+12
4450261282.96
5.50317781097e+12
1192131815.42
13621592.4086
9299526.03938
42725.8914677
945187.942019
590137.671164
2173169.16208
2329150288.52
307028114.486
7467028.97872
4992048.22726
342322429.176
159804868.934
32936473.1379
477105.024207
24904206058.1
8351864.37544
22175215.6298
119122829.371
91979876.1343
19445943.3223
30907855.1616
18752566.1738
7561489506.44
72679376237.9
7683970.68052
1324051.73328
7161925.09457
4529366.29439
10829594681.1
3926184783.69
27892385870.3
2332929692.37
97560925.7827
6707502.04659
8020641.29038
325690507.47
5350275446.01
27998389157.5
2087654635.88
504935166.997
40029393.9099
421661346.331
13739985.1338
8132232.75451
119549705.453
11163140.0817
89581.5756146
1794329.91555
2982843.6939
1725618.96121
37937264.5117
2141264304.11
17507001.7576
135241.429585
1299238.66963
2183524.94608
2749148190.3
12576784782.9
29247489905.6
26299356.011
186606403.418
176308298.194
1922218373.11
2.03120627484e+15
8.33341444712e+13
3.76756302678e+14
776986072.757
5.37483379135e+13
1.30936365945e+14
11981307277
16782957.6199
3370613060.29
94135792106.4
6117044456.29
40518397.7119
17402406.1677
360264075.454
53659932.9429
495792731790
20413437721.5
1336624717.65
17184146.6236
5808697.16339
46914817.8766
40942301.3444
78868439.351
294474841.654
18350015.535
3540172.86308
2401558.24812
3488825.40717
859476565.5
2.2142228584e+12
201128890100
597547390.863
217912036446
21015183117
183131610171
1.0457649769e+13
4.8135332505e+14
4.10167288058e+19
1.74491265537e+14
1.39725277776e+19
2.33346915248e+17
1.36589566878e+18
6.74251469194e+12
964961326799
43129884902
6.66267449248e+18
1.65798176875e+13
2.16233753243e+16
2.38938874403e+12
6.74639266794e+13
2.01868254368e+12
4127698451.96
1.67507816623e+17
2.06039059339e+15
3.51792085121e+13
1.44677100898e+13
7.36210474278e+13
4264960772.92
168083602.033
2.63481705841e+12
2.2802635657e+12
477205816141
44246568382.4
2.66344532975e+13
2.41733676309e+13
13076516201.9
1.61495569219e+13
2.29823642125e+12
218309609938
4.21675154191e+15
239794251.05
7.54145317271e+13
760548104300
6330699.0365
2343035592.57
1615849840.62
140052342.346
2583281859.14
93869984.8868
4.39013884402e+16
12357412521.7
9030067305.88
535732143.293
131430303.26
527563510130
416956.684444
1.7232282201e+12
658983.680286
2.51841593731e+18
16700424.4397
1e-15
90346340.8661
7401980.47712
38407261.4528
8813102.42479
14155.1695556
422760.734665
422733.725858
422744.604686
536072.029013
422778.970738
422880.841581
422849.19993
416873.001546
54793235.4222
3928464.64679
69722867.3346
197242.446953
3466264.28423
132012218.273
216200.938315
173829133.608
1.50640108304e+14
878104766.439
7912640.15544
1075819540.77
1.1007833415e+13
3183815.50881
422769.524646
1130742.82223
536156.51286
644160496641
422910.375522
1.02687495892e+16
4.36763046143e+24
338192273801
2.25964768109e+23
1150923.70164
1071279.17148
604053.610657
422867.677107
397741.525496
422728.350947
1163650.95946
2251316.89604
165981.330296
156078.91633
7682365.8189
2364553.10114
137375323.252
3972938.77366
32631382.0415
29921711.0945
233085.379358
16457468.3147
6022343.98836
3471031640.57
22209304.4134
288307.644012
129329980.684
251368.147367
26008076.4018
467974700.719
11447247.0007
77359947.2854
203031215.263
126206052.969
613755.487269
2112077760.04
422936.985135
408362.733377
1.15545626097e+12
113126299356
397725.217623
113306702999
76153991.9265
105694303.38
200465691271
777708.6274
6941158349.91
60748805.5556
2695038.05887
9356735.90452
5719330984.32
411291.161509
1593077.42457
17949418.5263
563225202.788
405589.841269
11242492290.6
64918474203
20618346551.5
135803225.865
5.52344127664e+13
1278928539.23
1.12416356915e+12
1.58984252954e+13
1578793696.38
1.61179859357e+18
41202584189.5
5.14627140486e+14
278597551.702
830818576630
19924601.6706
481525.278912
6651567.96043
6995294.74551
140469860.919
4657543.78595
35985084.3086
137037.891881
399297618.014
68478222311.2
1.25425616622e+12
4876993.96956
35660.4803841
2036096.44593
307202.241384
536123.561693
26105794386.4
1156168.28463
1130698.30621
545386.80993
416816.103017
1168022.06902
545387.642608
422732.730465
1131417.46048
536089.260439
416819.051301
422736.54918
4933022.85473
422723.047502
1193816.77183
397673.717066
172682751921
1071476.35455
25448473.3029
422730.542253
536110.776929
422717.080668
422719.86421
7086087.51173
46008899.8328
11899180.0869
11104235.1511
478390478.652
1941972.49491
3009790.00744
2203968.87754
3.09737031043e+12
225876990300
472932884.201
9214190.10497
422875.811322
394802.09254
47524918280.7
154890774.188
168619819.04
83959187.7259
21748730.0834
1541177.32406
33944933.4519
6.30138987911e+12
17589656.8519
7969263.98822
17764907.2962
4016183543.03
855808.719404
10561987008.3
1433747.19826
19944569.6168
524495.870087
1250190.25004
82401646670.8
56473439.7826
23313419.2967
106780.272807
2573244.22384
1936213.06172
5442252.04068
6472908.10417
136572322.387
5174907751.91
444117633.719
952388827.784
16564868.2652
4337084.1807
517138.912458
296755838903
2118163.10211
328384231.715
9168230.41806
4526308930.09
1859110559.09
319846118.215
879504.283922
331622.812072
1791744.02986
38708320.7814
4127566400.09
115774627.701
49375071.8412
659086.431884
559201854.134
275972711.823
398880313.683
388270.319316
1250185.86949
422922.862307
21201286832.3
1.35037184593e+12
28255602354.8
538821752224
18759423671.2
454091910.876
78527250432.1
20394873.8542
148252806.886
47059949.3578
29694200.0436
641528971.593
6.56677271298e+13
92949742.0976
381506.547893
29513094.251
131805316297
59046222.4457
1.01771429978e+13
2.18116609093e+12
1134386.917
1173988.04202
7.50493603651e+18
1150937.63767
1150938.56582
1100251.86648
1182098.56583
1099291.30581
2.3569606157e+13
1594108453.47
4.53531475954e+13
13879365387.6
7.70105205031e+15
84577033632.6
2.53133265192e+14
1071519.94328
1150934.67807
1150925.90031
1108111.75166
1100260.57407
1101624718.8
3.6004757417e+12
951880923069
1.63132817051e+18
1108879.43309
2.60768537735e+13
2.61640845664e+14
780554872056
402383963803
2629032727.85
422739.288766
397738.609859
1184234.27068
1122981.96055
710948958.926
142795064371
37792930.8369
231237460022
1206709929.47
1.46701756856e+14
88442287300.6
15593012218
1071503.59725
1219496.15655
32869392108.3
2.5919913708e+15
5.88419962583e+21
7.49082658338e+17
6.38093613837e+17
1.04252254719e+14
27437867561.3
7882088240.46
76434797445
397732.725939
422743.930128
422749.556059
422767.409988
77139943908.3
161005437401
1.93500165846e+14
589067706.656
1.12292662087e+13
1.5088043677e+20
416844.961332
3.15116416691e+16
5.82500804968e+13
1.3796259869e+26
4.56408727763e+12
8.536225096e+16
108981133984
4.05894464358e+12