/*--------------------------------*- C++ -*----------------------------------*\
| =========                 |                                                 |
| \\      /  F ield         | OpenFOAM: The Open Source CFD Toolbox           |
|  \\    /   O peration     | Version:  2406                                  |
|   \\  /    A nd           | Website:  www.openfoam.com                      |
|    \\/     M anipulation  |                                                 |
\*---------------------------------------------------------------------------*/
FoamFile
{
    version     2.0;
    format      ascii;
    arch        "LSB;label=32;scalar=64";
    class       volScalarField;
    location    "0.01";
    object      p;
}
// * * * * * * * * * * * * * * * * * * * * * * * * * * * * * * * * * * * * * //

dimensions      [0 2 -2 0 0 0 0];

internalField   nonuniform List<scalar> 
29767
(
0.0769842386367
0.0778606589786
0.203844182999
0.171682052821
0.163959728966
0.102920667432
0.135868535376
0.111951051266
0.114206728502
0.173525104134
0.306283032647
0.157973679336
0.051100016045
0.152297276231
0.043455937439
0.185629243673
0.309535555809
0.320498996501
0.378551605719
0.323985623733
0.250514868476
0.180608666832
0.21118399336
0.230651969715
0.282476880439
0.240276377133
0.290943404028
0.187400573116
0.154394613568
0.23686652161
0.0913461143506
0.0278305551788
0.222177263216
0.221375261184
0.199118394485
0.175465019858
0.14159107667
0.216593241837
0.284384932873
0.23532445002
0.186317694892
0.171947416164
0.128354577458
0.21349669336
0.243070526527
0.282634249825
0.243291987499
0.2978926183
0.357345221968
0.3034864211
0.327873920068
0.325649462791
0.357432766085
0.303736427415
0.330481454324
0.32263265535
0.0298242719496
-0.0039506696651
0.0135889780295
-0.011487374654
0.216643825151
0.260176842374
0.300084391349
0.303544202337
0.246266343267
0.250022182508
0.291439082975
0.038030870816
0.097719060226
0.175863782629
0.0858606445792
0.116598237292
0.0103538084416
0.113168016191
0.0567682651911
0.183124648042
0.126857756629
0.131304779311
-0.108695786714
0.132951334368
0.0854151424648
0.0522608373305
-0.0218507483493
0.0669391139698
-0.0538572878222
0.238263722359
0.201170299653
0.241665055497
0.150111561358
0.2222875299
0.252644425699
0.174058835089
0.281353957193
0.316187306718
0.279741816086
0.320708499089
0.24770187812
0.209485949965
0.256984909204
0.186432892752
0.275011643339
0.266287885299
0.310644149545
0.31421554488
0.265158265495
0.275334557782
0.317147387232
0.366176181833
0.357658107241
0.355591650485
0.368167968978
0.350887650603
0.346544738259
0.314480472589
0.327051693422
0.320259295968
0.343262890858
0.355017083095
0.360147442635
0.348475010103
0.331552609708
0.327334710804
0.335386612614
0.357967869091
0.350396202831
0.371108565113
0.378065654492
0.386244826104
0.359915569775
0.369954653137
0.38672139382
0.360661691225
0.361043076743
0.329795211667
0.337844093347
0.35183378149
0.371978484605
0.378046781397
0.386309265317
0.362314196068
0.191852533803
0.378240289698
0.385508619723
0.377917110609
0.384246282456
-0.00798382549037
0.0855832358656
0.00163505595536
0.130820854274
0.159335601079
0.121167080186
0.0142255968322
0.0709635319335
0.11008071844
-0.0100509619605
-0.00322171262446
0.0877071937462
0.0679472524496
-0.0465551886579
0.104040925465
-0.0266510285122
-0.0232070028463
-0.0572825961044
0.0780710652681
0.0262289507988
-0.0536320709824
-0.0681672500578
0.0636065237282
-0.0362662120693
0.171307019401
0.138352464153
0.203010524282
0.199882348986
0.156289275253
0.21584129647
0.158014916282
0.154466640415
0.126349961571
0.0786062579919
0.140906610333
0.128322588091
0.114215334565
0.167427293282
0.142779632908
0.0883254513118
0.0812810791299
0.0553336799316
0.125663954176
0.113113505573
0.0993126290457
0.112907445191
0.0334320183397
-0.00926764784778
0.0951454546046
-0.0220274003342
0.0453540274296
0.0579578848766
-0.0701753158021
0.061329066041
0.00717051396529
0.080378882558
-0.045419351204
0.0293213880837
0.0115395817512
0.0534434747051
0.0403855496727
0.0882362670943
0.0906934390355
0.0759960632249
0.163645498052
0.114877784902
0.0971798892149
0.124463875018
0.161438475486
0.108230267475
0.089045350686
0.123810056896
0.181621428934
0.206238466677
0.233864584069
0.176883554779
0.220688877632
0.168140877951
0.191054412003
0.221619399578
0.22564864192
0.247261384115
0.228976536118
0.256774671684
0.257096854815
0.001739902733
-0.0445012903978
0.00745945549251
-0.0454240220621
-0.0965664364539
-0.0856911701171
-0.0764231348163
0.0154197669057
-0.0336456215366
-0.00267117697337
-0.014972421438
-0.0667441255652
-0.0442707882911
-0.0560839229019
0.0288917783938
0.00751886792711
0.0400171146146
-0.00816229820354
0.382723364011
0.381699443757
0.374004852094
0.344334045975
0.391401944525
0.382167134428
0.39058824497
0.3719182786
0.341870286919
0.38144029228
0.391779071946
0.392110553966
0.382494463953
0.392251298961
0.404239390397
0.394863475036
0.404265224548
0.395599074719
0.403465070452
0.394788548139
0.39378059865
0.403403668983
0.401160038714
0.391315415949
0.0572843404391
0.0900762621782
0.0577544819703
0.0608315061842
0.058457867609
0.0653172457133
0.0695500226983
0.0578037812939
0.00357407475878
0.114641314351
0.0564504848021
0.0580792209361
0.309176784603
0.0150440605408
0.0855263593834
0.0695298299205
0.163973445832
0.120180886256
0.111601880258
0.0373634321796
0.27035980552
0.372033874865
0.32506654314
0.0287445340338
0.365173780868
0.290818341605
0.363710393912
0.0656760465462
0.0596991068353
0.0622940357707
0.300372569078
0.207884306145
0.194745743566
0.0707277783772
0.0712210067116
0.125239502719
0.0942267923684
0.0785578006905
0.0819432475683
0.0870834489648
0.0694747837378
0.236184085786
0.176468875508
0.371562668433
0.239149516349
0.197735746322
0.21013244129
0.394874074382
0.377837366508
0.0578800374487
0.0576154720199
0.0480985655805
0.103855823403
0.265845703527
0.164749765126
0.12975167157
0.139114842659
0.152382334458
0.336158493223
0.316254946181
0.215873212355
0.218649835587
0.117088744209
0.308712592675
0.269968143323
0.18434740931
0.162990844434
0.154982918959
0.187161043588
0.176351611981
0.040251980195
0.187666459133
0.10576889136
0.0415468720737
0.390295465525
0.357785981841
0.395763686723
0.395456563595
0.3554980112
0.397350837173
0.255585464733
0.345490631066
0.194660584205
0.107597698384
0.342268055423
0.184845169082
0.262413225086
0.126955041009
0.275508158205
-0.754775201566
-0.323276457191
0.276883103954
0.252441336698
0.195414869191
0.113997329682
0.148233022417
-0.220364078967
0.0732717905217
0.113114436588
0.168818652789
0.239141010543
0.353167120957
0.267154877037
0.2157204234
0.254056320167
0.233322546404
-0.12017537324
-0.155960294929
-0.157545114032
-0.0114024615181
-0.122967507958
0.132997960929
-0.0899789564876
-0.000528479728702
0.38861166021
0.143514704265
-0.0751944874063
0.14013420275
0.308551770715
0.28006575844
0.354461961223
-0.756546439607
-0.659326283292
-0.6591909581
0.386443450635
0.386789657974
0.400027012944
0.192281910379
0.104134174077
0.15444687602
0.179509395277
0.200005511573
0.125541385111
0.213552985817
0.162196935337
0.115558014355
0.161397630147
0.226087909094
0.209840526418
0.186001776543
-0.344817709119
0.116885825132
0.0848007770435
-0.684294796122
0.0331591496854
-0.30181039614
-0.40053154292
-0.634426961301
-0.392876994281
-0.441144495255
0.28289255353
-0.47738215423
-0.319663172643
0.242975177988
0.0890139410901
0.104629355137
0.138624234697
-0.300602947539
-0.405050547938
-0.414530439177
0.423228894854
0.386594637396
0.420350975517
0.395841451655
0.415688970756
0.421099046385
0.411011978269
0.301549538117
0.398529921449
0.356294814148
0.414062501525
0.401362636273
0.413339396604
0.384516963619
0.419353592208
0.359776728843
0.298111134447
-0.159058388125
0.0134105172946
0.219344981877
0.316278260619
0.403805749621
0.394355599768
0.350528845274
0.310747620289
0.380238278744
0.394472052381
0.244125594333
0.303642795824
0.156734474433
0.0277621646092
0.339290621939
0.0240185819421
-0.165751778975
-0.286388009282
0.20555823619
0.0498408493439
0.288789272845
-0.47158686284
0.344558473048
0.0118395929541
-0.272958780683
-0.443964707333
-0.262123920708
0.406475123519
0.356166863149
0.167099165901
0.338194645207
0.364445123103
0.298793965523
0.269707219899
0.358779830855
0.339802642547
0.159080453602
0.391988600177
0.0358011881524
0.0149087481807
0.0203032210001
0.146100633041
0.210279180131
0.19322731589
0.186854401374
0.162405813593
0.151266858971
0.197664162884
-0.329870991583
0.107983684503
-0.676814339506
0.0161419187518
0.0250796506464
0.107555917744
0.0443124219335
0.403737782407
0.306472966673
0.36088628961
0.33849424134
0.395229386887
0.372378064892
0.351043710189
0.322193443136
0.326546756669
0.358255727583
0.393017409304
0.314446577284
0.386891120173
0.346472855711
0.113132341164
0.285164095268
0.218066128176
0.317574858293
0.246919545126
-0.269597863347
0.341383792242
0.331191987279
0.383985526647
0.350933257839
0.256753240932
0.338653089139
0.355294253828
0.271190011011
0.259581693622
0.243174640845
0.280314598532
0.0907093577603
0.0894581295376
0.126910592033
0.0829947433419
0.121864640789
0.0969567191101
0.101014913576
0.0238333327449
0.164463627408
0.214404299807
0.162791640142
0.065302248078
0.138084275862
0.101803191964
-0.0961202327557
-0.0586889082438
0.173313111449
0.178727397365
0.0721010730564
0.29637096621
0.324296636691
0.302792414792
0.357319083448
0.382259566815
0.294991104033
0.39700115456
0.35770990542
0.258299671582
0.313731032469
0.323323814664
0.35021022851
0.142305319673
0.378143103802
0.377408064042
0.390055240966
0.370420885075
0.397385107624
0.368925847102
0.330505846189
0.38597856673
0.361598961384
0.35464662264
0.37843609879
0.34979260303
0.331719441511
0.351029056687
0.28541706045
0.276206507567
0.273854908743
0.284188852752
0.348325269826
0.328029020212
0.349316759847
0.285599246767
0.26436510901
0.282182961901
0.2721899431
0.263849981979
0.300288848303
0.24548329739
0.219351207363
0.256686024648
0.251759530946
0.229523192534
0.201076197521
0.288479346915
0.231383638414
0.210197235997
0.236445748261
0.193632953906
0.248064254428
-0.386553026718
-0.649475423685
-0.193667248213
0.154080083904
0.08107400473
-0.0858420061635
0.122143667325
-0.10651672104
-0.205044058769
-0.412663531097
-0.258943376389
-0.263698423738
-0.435164252874
0.423665758417
0.421825865802
0.417919076605
0.366282994397
0.380987407839
0.380752419121
0.384974693712
0.41390314597
0.392125814669
0.42364207478
0.406276570653
0.425010818696
0.402464849
0.424063548349
0.424630776345
0.409833118166
0.380487555756
0.397658865704
0.400111448005
0.385274018009
0.406334644747
0.344970740407
0.380758777686
0.377096941049
0.374340901661
0.412732675971
0.3592667952
0.412030231386
0.397108024904
0.390115748652
0.387165906132
0.416304622417
0.29665405084
0.312258624328
0.234298936751
0.207812527603
0.142958371921
0.29706140729
0.3272696597
0.313820426188
0.357119714905
0.291412019215
0.368928154867
0.309850282985
0.384200889706
0.271921747214
0.286669004223
0.0412902022318
0.224036332645
0.268166316374
0.120964193507
0.293453877161
0.23106280056
0.0581464931712
0.179225603324
0.140706320917
-0.0867279412268
0.215273041554
-0.197268019254
-0.0632811646133
0.134145966286
0.325763623552
0.284134196927
0.362396057948
0.260290567384
0.336405675395
0.2567553401
0.0837432329518
0.0147873421504
0.154052922386
0.260908589597
0.229650563249
-0.0599023736073
0.206391764
0.0595213073897
0.377390390056
0.348968792934
0.233548915899
0.313265380209
0.221966451357
0.330327184339
0.0531696725972
0.265042970768
0.246194694833
0.09918766023
-0.0339928465256
-0.756639299029
-0.24686709246
0.0472571323406
0.238681497411
0.180715610894
0.284250002421
0.243119911183
0.143006064682
0.255913144573
0.212843471933
-0.0356061562993
0.160627670897
-0.548898361712
0.234661184466
0.196248597749
0.23300722581
-0.0714435291388
0.1153903925
0.141242930895
-0.252456137227
0.115841733936
0.102592932641
0.183212559639
-0.113900863932
0.0623196880497
-0.21016789631
-0.149043364142
-0.238365516468
-0.163217835439
0.00731418175592
0.0805684938217
-0.0597106637938
0.407644107917
0.426101216724
0.426052223658
0.0148992533303
0.17188052013
0.268741916637
0.117891535448
0.289405745105
0.150756987746
0.0701933588233
-0.737632610879
0.209586139357
-0.0158504055038
0.184735097496
0.317405088645
0.29586470298
0.232470279295
0.137258168817
-0.135744871672
-0.768894902746
0.0740633158502
-0.0355066671632
-0.697920070844
-0.686173332162
-0.702296781605
-0.696426750752
0.377527394759
0.403507337083
0.396131407839
0.398766346527
0.381050389182
0.395776152613
0.406208692907
0.399926029518
0.395371769303
0.40457176297
0.41028167799
0.417588799015
0.413199396602
0.396714706074
0.415130265362
0.411243478593
0.407281211744
0.412294364601
-0.80859417329
-0.49793997862
0.0185706003031
0.222945883782
0.112454209802
0.0125481112549
-1.00698597383
0.222339435027
0.0706885796281
-0.526313393929
0.0631503223997
-0.0976459859335
0.0228752326722
-0.549681947786
0.210456796798
0.0893958334797
0.145128849668
-0.617128010043
-0.958665551556
-0.528425682886
0.422506994764
0.416773321199
0.413174146234
0.406351503166
0.391540748764
0.408701402408
0.421836841703
0.409892192362
0.411403029722
0.411962857457
0.394159616133
0.410068055935
0.418438033248
0.424193046698
0.425266514644
0.426714420543
0.427114288103
0.419956095775
0.426701217048
0.426304155014
0.425236457959
0.426139974925
0.406951021102
0.393882799302
0.387628710251
0.367578738789
0.331449066977
0.371864004497
0.404634249051
0.372268008472
0.387202495815
0.387882130986
0.334378694648
0.381892977925
0.410964655217
0.422913246384
0.420836734888
0.419173665943
0.420782593322
0.408143435985
0.416187981114
0.418732242954
0.423903656072
0.422657868124
0.416288710797
0.396662988924
0.40147854345
0.404912520809
0.376674523577
0.399918615172
0.417556827985
0.408207901894
0.403503782669
0.39105942114
0.372159166852
0.398078738921
0.199498270327
0.27217879901
0.146354378673
-0.0884652062862
-0.0127150745025
0.0922710580783
0.17630752187
-0.0736412812587
0.113307374253
0.265589007638
0.0340337739524
0.125611466056
0.363393154419
0.330930123596
0.372063448773
0.401990017251
0.387304921861
0.384515254259
0.37001965745
0.397456189324
0.375296464563
0.335552392331
0.377947302087
0.372679687062
0.360490106546
0.285910720553
0.349101329702
0.38673062962
0.340405963985
0.352876520375
0.367148536422
0.389807287964
0.358022093787
0.278033900206
0.330713737144
0.344356630752
0.209217609495
0.321471119737
0.245908404561
0.108827639152
0.263428508766
0.234865748953
0.184605891126
0.0930256615938
0.225579351103
0.326095626325
0.275181057893
0.254504200407
-0.2546070881
0.120549208818
-0.141659479172
-0.208078640127
-0.0437678623953
-0.173938159522
-0.238104980073
-0.209932556737
-0.20697826754
0.144591269712
0.00431749434184
-0.124372013176
-0.136852302164
0.250942786276
0.211168738724
0.128835061649
0.323803917285
0.220630110462
-0.164968463531
0.0864353924992
0.200216988243
0.265076947872
0.326822293363
0.230094504202
-0.200205536017
-0.252941879707
-0.304870091109
-0.22570780306
-0.318778954232
-0.315164868608
0.388425046541
0.382206934945
0.265278060576
0.294369108267
0.0625171928339
0.0936877527543
-0.0737438126842
0.163149863584
0.0718505493945
0.0640631285551
0.0544631930873
0.417274009578
0.384930714945
0.366838956547
0.399953783874
0.411963729459
0.38473288587
0.395351558362
0.199818650015
0.260572359997
0.262220333985
0.22384503922
-0.106345081812
-0.0864827636005
-0.0591426652655
-0.0983384021245
0.0178507446199
0.013519095561
0.104539292831
0.208084776507
0.133218044448
0.0490073561625
0.079755322522
0.383494679372
0.402846155561
0.411507845609
0.183815113804
0.176299267708
0.239954089722
0.15246883668
0.222087115718
0.210960808602
0.119015174496
-0.381689863041
-0.281526400954
-0.351135785787
-0.248396777505
-0.196032108813
-0.088950959337
0.0768224866526
0.0685444654929
0.0996037660716
-0.229867209053
-0.0794064398981
0.418182739662
0.389807664426
0.392928836394
0.418448475592
0.417570126212
0.39042862978
0.420753564437
0.420165711102
0.394679792076
0.390282250044
0.392119856428
0.417422879431
0.420601273635
0.162344639877
0.252614037953
0.237013611227
0.153611688093
0.108134565133
0.19603732658
0.230654170894
0.163350668972
0.253170848964
0.266551493168
0.217413498197
0.203818551831
0.242238044503
0.180085310433
-0.0116313448848
-0.164117081856
-0.745876100301
-0.227616055193
0.0536930144319
0.109829374997
-0.371170402944
0.00283107009287
-0.266990143459
-0.156103594496
0.0624533934559
0.0408839258936
0.226691813129
0.283742537249
0.264779621699
0.242042014624
0.27039374818
0.244472855462
0.229315582347
0.115128761632
-0.0630889570864
0.1850313588
0.155969926117
0.186521266898
0.0443478806402
0.0754511154204
-0.211675139727
-0.224640684471
-0.169722060776
-0.176395966063
0.218574622527
0.287298402564
0.272486318872
0.267393030374
0.246033316469
0.278056030924
0.230203817626
-0.182238889253
-0.0952721866216
-0.169383488982
-0.104954316003
-0.0871054309022
-0.182582002326
-0.142738215941
0.0632796828973
-0.0766024709316
0.38817664314
0.416619713329
0.416209222829
-0.286468394368
-0.0245141804848
0.417658970507
-0.643989113752
0.19810650013
0.257466796693
0.268677863108
0.172804188729
0.161684770237
0.163495320449
0.190357286766
0.0557073692233
0.13223064613
0.210538107492
0.0910240137005
-0.0505783312715
-0.139082133444
0.0614631206227
-0.307772610948
0.219902596347
0.265578507253
0.227470774223
0.291204754938
0.198388926532
0.242088001107
0.279082591541
0.272215841919
0.322512217671
0.312656027081
0.284197825674
-0.611907655329
-0.79618540769
-0.588801399669
-0.752586053687
-0.636265503091
-0.812749819682
-0.46514217363
-0.669528242922
-0.715978354782
-0.667593812892
-0.653966464926
-0.66283867644
-0.726847925283
-0.652672294365
-0.628921975426
-0.602150041822
-0.570867276347
-0.585422557219
-0.584186882644
-0.625356807757
-0.639777228349
0.377436712669
0.392079271427
0.386744937482
0.410715176809
0.407629535341
0.415430331999
0.413327850261
0.388448622839
0.393409293703
0.395896385114
0.423231787129
0.421772708511
0.422122580669
0.423917454852
0.399254364373
0.403654761024
0.40532647638
0.416645052419
0.41641694893
0.41711323222
-0.147819236529
0.038364894214
-0.726229884478
-0.527722209461
-0.0378703459383
-0.517659951164
-0.112246005657
-0.173053845055
-0.444630140734
-0.1554591675
-0.753602031298
-0.20534471693
-0.0532384741113
-0.508925373847
-0.678269784806
-0.509622683007
-0.497300912414
-0.571809495407
-0.650353103696
-0.506173719401
0.26373971511
0.230055419586
0.200536545758
0.228190851379
0.231541349835
-0.432633820817
-0.298775312793
-0.602294285896
-0.579480833414
-0.430954164969
-0.00683827936882
-0.492534881699
-0.0217783028523
-0.256053894068
0.0413243458777
-0.401877176142
-0.0530356762379
0.00982703067737
0.0610557330527
-0.555677664015
0.129610958716
-0.064330544635
-0.491345178009
0.0136630442887
-0.0844475455809
0.135107674475
0.100991356913
0.105985444816
0.055067927022
-0.124602068183
-0.759013106818
-0.355409030238
-0.561084325867
-0.550220390031
-0.583778011163
0.422008393735
0.419710895207
0.416034422532
0.418940764862
0.419627562982
0.421417900312
0.419936262111
0.407410762904
0.410272756069
0.415274921415
0.405829188398
0.404932609978
0.413324824233
0.408521233371
0.341697886614
0.321037931812
0.346776370387
0.40609199845
0.402555053029
0.388228572714
0.415846235802
0.390926702835
0.408116615935
0.373568623569
0.36916795612
0.353260530198
0.359039498527
0.365914214534
0.374440637143
0.363687135728
0.423769036603
0.413565306427
0.416482620131
0.417596872464
0.417105642926
0.425844157558
0.415107097674
0.425427764572
0.423577219691
0.423241543488
0.424595875027
0.414414912938
0.405727553398
0.412754638426
0.410241273188
0.410346996023
0.415196902107
0.409398980176
0.413211652376
0.420253839267
0.414143258236
0.408214773619
0.409258711914
0.422470753489
0.409411171054
0.391099019888
0.384779566764
0.392203808217
0.382954564252
0.390020400396
0.382689769254
0.39303002766
0.382785645165
0.371558013526
0.35854155644
0.363132162057
0.374321781203
0.365464678667
0.375980960061
-0.112462360987
0.0869752455512
-0.0192326089487
-0.211982080419
0.0557073447589
-0.298015510062
-0.0200631202704
0.156047011204
0.236698601928
0.157182250755
0.213340776786
0.180438775775
0.232528717138
0.112788771106
0.307443780715
0.257145421182
0.233571305226
0.280168272811
0.291023396022
0.282144501296
0.249130909562
0.0392979065672
0.0951428713322
-0.08305596909
0.0516290987849
0.112919705803
-0.0442555827185
0.00431113182029
-0.139770981909
0.0697960549078
-0.0704116808152
0.0220305721429
0.182870567361
0.137871938323
0.206430789167
0.107767549639
0.155949507013
0.0887057699569
0.0118480397508
0.163078111343
0.140915608004
0.236926405937
0.311594200875
0.261097719227
-0.346010764242
-0.248279573207
-0.615116760126
-0.0684507425247
0.327253749027
0.342439689019
0.353961537051
0.307556710108
0.338219406374
0.359633475564
-0.709092199155
-0.0480855111193
-0.167267147843
-0.261589721176
-0.944305059506
-0.58343555322
-0.37679898566
-0.591987124212
-0.391989719079
-0.580036541288
-0.417897124728
-0.625922199686
-0.238592508486
-0.282609677544
-0.286102906636
0.377638442474
0.335352821332
0.360350401449
0.325852186047
0.346126526524
0.322954851508
0.370126686382
0.303414028146
0.267164429306
0.354398595328
0.281821907063
0.32522816671
0.341337200991
0.334721816056
0.246981299076
0.242179130788
0.268258905025
0.319426296584
0.292882742586
0.32298674599
0.299050965648
0.382295501055
0.365261169658
0.344477439855
0.383094196514
0.354796762765
0.352654538017
0.375707552526
-0.714224157664
-0.240276812524
-0.282985771566
-0.547792995465
0.400034872414
0.390747503938
0.382298231251
0.374968198505
0.396528744573
0.393719050022
0.379598369861
0.310009644772
0.358603397467
0.32972877522
0.372588795276
0.356833731121
0.345158285087
0.325736879639
0.404467646829
0.368761169818
0.379423068644
0.368502556998
0.38535804741
0.359738541581
0.391366320341
0.376326067054
0.336395862614
0.37489256742
0.361438721113
0.345690142601
0.333280505931
0.369047668428
0.0176487634203
0.250541871329
0.204482164
0.239830257277
0.200991968076
0.169440138798
0.263322091648
0.294080943473
0.173079550555
0.314497126294
0.224714323431
0.224376715358
0.249560739552
0.312952505854
-0.0173794170472
0.121442697294
0.122767768663
0.202465045369
0.185337266473
0.227684376732
0.154204251885
0.276547544369
0.321676182047
0.238392622466
0.26095590904
0.336369998357
0.322312105775
0.282914448355
0.27840463354
0.271353237043
0.341213760054
0.349678927372
0.354306626086
0.266731878817
0.333563222797
0.356798543817
0.357077037548
0.283338185554
0.304016513248
0.358479850327
0.35108358193
0.388011788882
0.378797285346
0.382817752299
0.384723400546
0.328333354117
0.31042592739
0.361021833794
0.366812321793
0.363900490966
0.358094113976
0.38991699262
0.344749557512
0.36444856398
0.232478424116
0.365407727149
0.344204454266
0.233460561726
0.332082751374
0.335220666916
0.392839846528
0.370346433516
0.364906785838
0.350958093379
0.293691277415
0.350582755857
0.287971042021
0.30813143213
0.338113327872
0.298060276105
0.0907396258533
0.22241616857
0.156013101901
0.233240772739
0.264176497937
0.351209235484
0.32262891516
0.243680025851
0.282057760896
0.330179788918
0.292222432789
0.208492598339
0.222624851845
0.170833470643
0.259666265871
0.289511850462
0.285097552531
0.268571759229
0.385896065541
0.400544848568
0.405639680321
0.396010463647
0.370999820562
0.377442759861
0.392064938959
0.414308940845
0.411324730023
0.404447674902
0.406563644518
0.389267293577
0.412357930755
0.407495862094
0.399388679575
0.387243224876
0.382138762242
0.402338024576
0.405662142975
0.409710112368
0.401315078869
0.398936617223
0.357629790438
0.399776242038
0.4011495361
0.383587141466
0.365826886814
0.359425321101
0.389475140784
0.388632786119
0.39657677939
0.389968421815
0.387731191549
0.35646008817
0.385447599112
0.333523398236
0.394074929629
0.381197823834
0.374437837074
0.353090685605
0.404860114043
0.401922037563
0.394087000009
0.39593851517
0.378416071803
0.389166265188
-0.6948957382
-0.603658869003
-0.592434634048
-0.686478605752
-0.601931231955
-0.427761174443
-0.315827585772
-0.327240308387
0.424111505861
0.428901826826
0.429715168345
0.427072151414
0.428209809191
0.421377822621
0.426937356152
0.428460064546
0.427763839755
0.4296725393
0.417279325482
0.424328361478
0.418061559247
0.404039907995
0.417731618866
0.417029562347
0.425551296472
0.419093377847
0.418778317702
0.413548945683
0.404144161312
0.415457665233
0.424967397218
0.428446738653
0.427692382532
0.426564084891
0.428729181851
0.425390899575
0.42685137908
0.428584425166
0.428864448913
0.427612627428
0.408016381234
0.417830295175
0.416234969603
0.409294590513
0.400235370851
0.398286882294
0.409879152634
0.416745935193
0.418085509706
0.410465339861
0.408940692355
0.404663322897
0.414539023002
0.414047702207
0.406527973372
0.390507218741
0.39487242989
0.40511324043
0.420404843554
0.419721883771
0.412809496494
0.41290175281
0.408975225796
0.394166006503
0.397944775095
0.388083885712
0.398656652688
0.383708737499
0.401370617716
0.39484277492
0.371556330912
0.391178947997
0.382444651643
0.369552162266
0.385992980931
0.364296761151
0.381634268422
0.36720129407
0.386933979985
0.379187937523
0.350484850109
0.372771101037
0.359247393486
0.413755469735
0.419265964061
0.420133369002
0.412508904639
0.402838711846
0.411821869831
0.404394640967
0.205800076199
0.165256121141
0.225313605594
0.248423071798
0.184394640316
0.205412745744
0.230324749647
0.374940557832
0.341833505097
0.350870970876
0.343762702308
0.364145887396
0.369623477839
0.335248463881
0.289967384582
0.317280352635
0.329078620668
0.326682302097
0.279947892269
0.294310349891
0.315548225372
0.234490053405
0.271008961639
0.21304466921
0.232388684785
0.295618013348
0.248818817179
0.282616326383
0.0627010456825
0.100005936826
0.131129827449
0.188497057707
0.116881938552
0.141338245757
0.165255601771
0.188366926095
0.0907886834725
0.160313562054
0.20197680912
0.174127663433
0.152169585747
0.220930810268
0.253664715496
0.162709721345
0.190224444348
0.219326591711
0.2561471879
0.273639468817
0.196892253703
-0.0473019118225
-0.076487462673
-0.131313709761
0.072219148628
0.180508523386
0.150023980087
0.100241430463
-0.0820489583917
0.110737634815
-0.134812870763
-0.141234230345
0.0634013022432
0.135254560082
0.0367889456465
0.261577006376
0.190709493358
0.289263581437
0.214089754995
0.270955476427
0.240713314904
0.270290582856
-0.0627465405056
0.157261007143
0.00351507531692
0.142013989181
0.193053420887
0.114132661775
0.216858939217
0.166379166545
0.130776429409
0.0274162763366
0.159199943439
0.247890286456
0.183337900241
0.230591899387
0.252657583277
0.177784405136
0.289154810856
0.367539075679
0.333680194639
0.314835715409
0.291906889209
0.362562225675
0.313884000064
0.190717904681
0.32149894748
0.295907663784
0.122010755432
0.138775729062
0.0683800384916
-0.115393779511
0.147822365903
0.118879374725
-0.0731807957769
0.161082488758
0.27896485231
0.257540725545
0.209379410111
0.258206859027
0.199124158326
0.181610204776
0.171143710896
0.252189326058
0.239734322433
0.218535912488
0.126213932546
-0.0937488771514
-0.0737505410401
0.11049375759
0.159923505791
0.18627196929
0.250032854429
0.243252493029
0.254298457407
0.191008192489
0.157865937267
0.122913976232
0.0810589742306
0.171090456451
-0.0302039626502
0.157563082861
-0.0648038098503
0.141643248376
0.14063158174
0.23373185043
-6.52350759701e-05
-0.147255681613
-0.216280308172
-0.752448440698
-0.787236322704
-0.795503017446
-1.01824268882
-0.811674839494
-1.32491980213
0.132960174994
-0.106650026282
0.101877279336
0.256263423613
0.245407403335
0.180542523309
0.242425326978
0.156683891185
0.212906984999
0.281765723553
0.243476334127
0.153032412221
0.262778163228
0.188284908658
0.195915097943
0.200979356681
0.205696247996
0.176074311807
0.0622010141178
0.220062552291
0.145386368596
0.196573164116
0.182343169906
0.0872697789951
0.12013580895
0.0383537343799
0.153080194541
0.122614153596
0.165682989514
0.0627120196887
-0.147744190273
-0.357523719609
-0.0741390910522
-0.0211113312225
-0.0495943640531
0.0148262303295
0.140809665171
0.196499855254
0.230631551381
0.142172288652
0.206362086602
0.17155187808
0.0809178870848
0.0948202992183
0.0642820208302
-0.285476831395
0.106945184054
0.0163216320325
0.134523688776
0.0213675579915
0.0355671594157
-0.066020393584
0.150583403284
0.0147732612915
0.0746673182929
0.115465605851
-0.166192725762
0.00718759381491
0.0519547120599
-0.363949466606
-0.0127628703223
-0.0364231590767
0.0923598380131
-0.212721217368
-0.187178989666
0.0343963636789
-0.11433379527
-0.0165384269318
-0.208980438574
-0.0911722360603
-0.287293298603
-0.0312293137114
0.418873492547
0.420330808718
0.427688622837
-0.0290680871177
0.0496619295354
-0.0969093196986
0.0989104854747
-0.628165137112
-0.625735258491
-0.62205646639
-0.636362258791
-0.620904129577
-0.623655092653
-0.626976059223
-0.621047780341
-0.628490923372
-0.629979530775
-0.633164956269
-0.623020917703
-0.613321713537
-0.629223981944
-0.615871881616
-0.631006721506
-0.625515489021
-0.626239683086
-0.623062994471
-0.626970982886
-0.621658962984
-0.625358541122
-0.620178213507
-0.617658263303
0.221900328896
0.25887221001
0.218480235921
0.275274798133
0.266737416106
0.213460897174
0.228940706411
0.205265672916
0.296159716016
0.273766124727
0.232028133188
0.170939399153
-0.0813354141236
0.119276934328
0.0216387771547
0.170599368178
0.141592850936
0.185322186663
-0.00908753624214
0.165157669631
0.197776231955
0.0742578644397
0.17966629058
0.0937708214723
0.207476674021
0.0409993788112
0.00795703609733
0.193478298186
0.0950814093734
0.159833250761
-0.0863591156408
-0.770613527231
-0.387553016329
-0.223011810898
-0.331021587042
-0.0288260073314
0.0675125549933
0.138804636901
-0.144710381699
-0.0202427892207
0.0453593579662
0.0159115145729
-0.154279936206
0.0765312499117
-0.0708546842863
-0.100667933798
0.267134371381
0.301049379377