/*--------------------------------*- C++ -*----------------------------------*\
| =========                 |                                                 |
| \\      /  F ield         | OpenFOAM: The Open Source CFD Toolbox           |
|  \\    /   O peration     | Version:  2406                                  |
|   \\  /    A nd           | Website:  www.openfoam.com                      |
|    \\/     M anipulation  |                                                 |
\*---------------------------------------------------------------------------*/
FoamFile
{
    version     2.0;
    format      ascii;
    arch        "LSB;label=32;scalar=64";
    class       surfaceScalarField;
    location    "0.01";
    object      phi;
}
// * * * * * * * * * * * * * * * * * * * * * * * * * * * * * * * * * * * * * //

dimensions      [0 3 -1 0 0 0 0];

oriented        oriented;

internalField   nonuniform List<scalar> 
87017
(
3.6272457868e-06
-4.01756249657e-07
-3.4521943428e-06
-2.17631085676e-07
1.84596526799e-07
-8.78487452797e-07
9.37220015666e-07
-2.33971791204e-07
1.53182492556e-07
-2.86915589588e-08
3.77035805586e-07
-3.72066933021e-07
-6.98380510127e-07
1.67638877319e-07
1.62202451558e-07
-1.63469543488e-08
4.49533413963e-07
7.26615957924e-07
7.05515606799e-07
-4.1781430935e-07
-6.38630342691e-08
-3.02297410017e-06
7.09319767475e-07
7.29754262479e-07
3.6463755522e-07
-7.82431989311e-07
1.88705126303e-07
1.94874009923e-07
-2.43621686545e-08
-3.31960909726e-06
8.78153499486e-07
-3.05599252113e-07
-1.87351820458e-07
6.72211708197e-07
-8.47776542743e-08
8.86717197821e-07
8.83070563757e-07
-3.02423819148e-07
-1.88965105292e-07
4.16879298484e-07
8.03234616523e-07
8.13554722727e-07
-1.29650704423e-07
-3.27080875294e-06
7.995796443e-07
8.16141921993e-07
3.11975346266e-07
-1.87651086089e-07
-3.27519184214e-06
3.39428704131e-07
-8.40883410515e-07
-1.2718880225e-07
-1.1035262089e-07
2.39170688667e-07
2.38120938058e-07
1.60771658852e-08
6.0505054481e-08
-5.44752374064e-09
-2.92003786561e-08
7.28337365769e-09
-5.93162402267e-08
6.62155752238e-09
6.41578957453e-09
6.38890717326e-09
6.74945487748e-09
2.87343348172e-09
-4.63855675177e-08
-2.24547896492e-08
5.18172355371e-08
-1.53479491211e-09
1.56844816774e-08
6.74652770609e-09
-6.04850991132e-08
-3.38190320641e-08
6.28421021278e-08
-5.57235395171e-09
3.02878516387e-08
7.22751333209e-09
-4.63290653331e-08
5.58464816379e-08
-6.05867312638e-08
-6.01437668286e-09
4.985617584e-08
-3.5581260123e-08
8.46387584497e-09
6.30117829744e-08
7.69245175635e-09
7.61811970293e-09
8.02280806903e-09
8.02370229066e-09
-4.75958805097e-08
5.55542058182e-08
-6.08707283673e-08
8.93532595171e-09
5.12045625222e-08
-2.80790522425e-08
-3.34209588425e-09
-5.86875383181e-08
2.41759777541e-08
-4.41251356172e-08
-2.24826354487e-08
4.97960118521e-08
1.62319014395e-08
3.45323520085e-09
3.3971949641e-09
-1.84674476548e-08
-4.17059915105e-08
-2.52025769679e-09
1.29108776957e-08
-1.69760642116e-08
8.86411657597e-09
1.19649705139e-08
3.1334107013e-08
-7.84681829291e-09
-2.73403115822e-08
-1.87846344145e-08
-3.98748002722e-08
1.33971611486e-08
4.53424771041e-09
-6.61395320124e-07
-3.27182723251e-07
1.40695794618e-07
1.4941022785e-07
-3.84120299758e-08
-2.00086395503e-07
2.00841071607e-07
-4.39609554116e-08
-1.83165149031e-07
-5.46698547726e-08
-1.37099083921e-07
-1.86046225815e-07
2.94058762471e-08
2.824519084e-08
2.825987085e-08
1.97563265698e-07
-5.69123724994e-09
1.61619425891e-08
1.40136029903e-07
1.22746054587e-07
1.16541344285e-08
-1.26232787602e-07
-5.51821442688e-09
-1.42785218418e-07
1.45619122076e-07
5.62240603073e-09
-1.51341267504e-07
3.13656958558e-09
8.46013038087e-09
-1.64393867998e-07
2.31685444931e-08
2.24506612829e-08
2.32574625292e-08
1.30196846186e-09
-1.8626366562e-08
2.01063376676e-08
-4.30270800785e-09
-8.10405929185e-10
1.10615991532e-09
-6.02525701193e-08
6.12119414326e-08
6.48923959165e-09
6.65534504825e-09
6.63683465156e-09
6.46439716165e-09
9.48399649768e-09
4.10777388928e-09
-5.59761318219e-08
-1.54782974964e-09
5.65112158801e-09
5.34625584536e-09
5.57502606452e-09
5.77266980676e-09
2.01637858879e-08
-1.64197379495e-09
-6.17456292743e-09
1.73465657536e-09
-1.91486004028e-08
2.35940162784e-08
-2.29287970968e-08
-6.98059628921e-09
-2.64564979641e-09
3.04804330205e-09
-5.63839846044e-08
5.62365084198e-09
5.52910388397e-09
5.65054513986e-09
5.65064404762e-09
6.04502468979e-09
-1.39969756475e-08
-8.94807835854e-10
1.02898596238e-09
-4.42238312585e-09
1.53825771416e-08
1.93028258575e-07
-1.56611523082e-07
1.21342836934e-08
-1.89367992202e-07
3.78418750171e-08
3.35158843792e-08
3.70170883801e-08
1.73480137941e-07
-1.39802587104e-07
2.3207535207e-09
1.3052961155e-07
1.96598595924e-08
4.35323203128e-08
4.57786380159e-08
4.2871559487e-08
1.79831732933e-07
2.47145896386e-09
-1.39626633971e-07
-5.99947279179e-07
1.25087924543e-07
1.21445776503e-07
-7.20137816901e-08
-2.55090377274e-07
-6.71035104558e-07
-7.3229916067e-08
-1.40419790652e-07
1.97366807693e-07
-1.604805992e-07
3.62084161751e-08
3.99551879876e-08
4.13431938404e-08
1.97231217493e-08
1.78465123456e-07
-1.44868658175e-07
1.33490794015e-07
8.82405336586e-09
-1.73590597326e-07
4.55452596922e-08
4.94375353878e-08
4.72187309735e-08
1.80890552721e-07
2.48037457869e-08
-1.66550158372e-07
9.29134996526e-09
-1.35313375817e-07
-1.75455420426e-07
2.81016592722e-08
2.72627500148e-08
2.73846604685e-08
1.32926314373e-07
1.22032291645e-07
-1.19077270626e-07
-1.5383233576e-07
2.31684323385e-08
2.26387313151e-08
2.35353104857e-08
-1.00880217537e-07
1.31101018057e-07
-2.75621173772e-08
1.72080706489e-08
1.73898432392e-08
1.76997033072e-08
-1.06546196043e-07
-1.06056356211e-07
1.05978784367e-07
-1.93071421457e-08
-2.48158319001e-08
-8.9574868488e-08
-1.73242547261e-08
1.86968191457e-08
1.9077589901e-08
1.89511419059e-08
-9.97780761056e-08
1.40196904788e-07
1.69873214461e-08
1.67512209898e-08
1.6638637006e-08
1.65613633893e-08
-1.13852062099e-07
-2.10674944729e-08
-1.1265640961e-07
1.04790990308e-07
-1.20576992008e-08
-1.25616921605e-07
-9.5411550971e-08
-1.22094743025e-07
-1.97441165324e-08
1.83452386886e-08
1.82339371254e-08
1.81407534232e-08
-9.91778697923e-09
1.90533434939e-07
3.2749806882e-08
-5.54113646215e-08
-6.15617596401e-08
-6.19706385263e-08
-2.10918534847e-07
2.02659002807e-08
-2.27320559637e-07
1.57638219361e-07
1.88958519022e-07
-5.5912320871e-08
-6.14131837953e-08
-6.09049778155e-08
-2.18056322457e-07
3.95220877647e-08
-2.3336543473e-07
1.57000502382e-07
2.30605267153e-08
-4.21780574232e-09
-1.19776031534e-09
-1.58668994918e-08
5.6480848359e-10
2.11324970502e-09
1.67749882266e-08
1.21304418694e-10
5.30184824957e-08
1.55453805873e-08
-4.79748412252e-08
3.26776222533e-10
5.25167505622e-08
-1.00729412817e-09
2.24617931981e-09
-4.53421197702e-08
4.51035257174e-09
4.51300560317e-09
4.42284385132e-09
4.53841848699e-09
4.02048566244e-09
8.50390953912e-10
1.47915293095e-08
1.48094564227e-08
1.42610051337e-08
6.58233553931e-10
8.89910590901e-10
4.18916651143e-10
5.95946229637e-10
-4.69006677414e-08
1.39765426712e-08
1.32502589337e-08
1.35563000504e-08
1.32598721979e-08
1.63905830705e-10
1.49590520135e-10
5.00935110448e-10
4.01435288778e-10
-3.54581815778e-08
7.36521265779e-09
-6.52519528015e-08
-5.38178120058e-09
6.82023359231e-08
-6.18780128815e-09
3.68458433115e-08
7.08428517307e-09
6.29415961472e-08
6.14512813869e-08
2.92163152987e-08
-3.60658932387e-09
-5.91175290347e-08
6.71155107309e-08
-7.44586723359e-09
2.27757212839e-09
-6.79579793515e-08
2.56814544951e-09
2.38004837852e-09
2.66059065433e-09
-4.88346392986e-09
6.17057701394e-08
2.45220134704e-09
6.79546526565e-08
2.10581188418e-09
2.57323176775e-09
2.78278656234e-09
-4.71717255695e-09
-6.5386798369e-08
-3.42084096538e-08
-6.48028408366e-08
6.82804293415e-08
6.03159532323e-08
2.93405353969e-08
-5.73779883012e-08
6.11374084898e-08
-6.32162600818e-08
1.9279643255e-08
-1.87286862636e-08
-3.77006619424e-09
-1.03812945097e-08
3.74041470394e-09
6.46079916619e-08
7.94194220217e-09
7.77775420497e-09
7.81706015608e-09
7.72379320063e-09
1.00156188165e-08
8.9913864002e-09
6.38187654994e-08
8.62387186949e-09
9.82847826207e-09
8.88682860801e-09
9.90186422214e-09
-7.52184233104e-09
2.36950339463e-09
2.08488271755e-08
2.36696066888e-08
-8.59177902183e-09
-3.2829897908e-09
3.56169144838e-09
6.52817700805e-08
8.85030201592e-09
1.04886713773e-08
9.18022882652e-09
1.01617302239e-08
1.09798172039e-08
1.80299883943e-08
2.99005792238e-09
-1.61842804415e-08
-9.26878634557e-09
1.34092801929e-09
-2.20715568721e-08
6.09557925377e-08
1.2961285564e-10
-5.38722757702e-08
-5.67494720773e-08
2.39161648269e-08
-1.52471646195e-09
2.19216409517e-08
-8.31202087892e-11
-5.48112090123e-08
-6.3974522564e-08
-4.02133170828e-09
1.92141989248e-09
1.67777442757e-09
2.00144782373e-09
-5.72811254773e-08
8.61604907403e-10
1.20543365493e-09
1.3204355186e-09
7.74742930003e-10
-5.22943112401e-08
-1.87404592613e-09
-1.80504425667e-08
-4.48969049682e-08
5.04667244662e-08
-2.46272632987e-09
4.64036374793e-08
1.70789465066e-08
-4.43084791652e-09
-4.18354581685e-08
5.0686174727e-08
-2.49369197847e-09
-2.83910446337e-09
-4.16445794621e-08
-2.212001585e-08
5.80516878646e-08
-5.46698611992e-08
2.40747054275e-08
-1.52549583409e-09
-1.76508128818e-08
-4.73233809048e-08
1.69948025315e-08
1.27964117558e-09
4.99921275391e-08
3.1571930142e-09
-4.30906663915e-08
4.76239494193e-08
1.67775810046e-08
-4.27404982086e-08
-4.07358458867e-08
-1.09257638188e-08
5.24265945659e-09
3.47993780262e-08
-2.9227575151e-08
-4.62946918951e-09
-5.40418556012e-09
1.15343435049e-08
3.67884715507e-08
6.24684903701e-09
-3.21781704249e-08
3.85415950693e-08
-3.33564995088e-08
-4.76391015044e-09
3.32105423383e-08
5.04103765655e-09
-2.78547796717e-08
4.1116117092e-08
-1.2111242015e-08
4.31334312387e-09
-3.70249916614e-09
-4.67943105307e-09
1.27659881755e-08
5.34106748696e-09
1.26405241696e-08
-4.38954762112e-08
-1.00629816164e-09
-3.121974146e-09
-3.91049817616e-08
3.9009688663e-09
-2.39070078185e-10
-3.58261727634e-10
-1.82611224154e-10
-3.91258277876e-10
-4.00390664782e-09
4.97691814991e-09
3.54221046883e-08
-4.63779788274e-09
-1.38439629985e-08
-3.27815443057e-08
7.43442659801e-09
1.35305182342e-08
6.07729355185e-09
-3.54447829564e-08
4.61766270912e-09
-3.73171037316e-08
1.37192222841e-08
-3.86155720708e-08
5.76763077144e-09
6.00441594423e-09
-3.16755222617e-08
-3.48195975272e-08
7.3884180672e-09
-7.19504868014e-09
-2.86049212947e-08
-1.24038627157e-08
8.62115290254e-09
1.22947922793e-08
3.07812278462e-08
9.87406441064e-09
-2.68779565548e-08
2.88071233821e-08
8.33792190986e-09
-7.06347708196e-09
-2.47640963893e-08
1.20898808554e-08
7.43600434927e-09
9.19945583003e-09
-2.43335836217e-08
8.69338631478e-09
3.69816913179e-08
-1.42012242383e-08
-3.20454799004e-08
1.42632551628e-08
-3.80268438445e-08
-3.40084773923e-08
-2.725105415e-08
-1.28251391437e-08
1.25000907564e-08
2.98224013243e-08
-2.58452953079e-08
-2.30536958027e-08
-8.85310342681e-08
-2.98190695451e-06
6.74189687427e-07
6.60593333298e-07
-2.22165442622e-07
6.60571332583e-07
1.12897803312e-08
-6.81171148312e-09
-2.78645284484e-08
-5.69299776671e-09
-2.29583152372e-08
1.11084217607e-08
-2.87070241342e-08
-6.00830607269e-09
-2.38789735217e-08
-5.08646360484e-09
-3.0496960612e-07
1.86276847758e-07
-1.05949463353e-10
9.6198699152e-07
3.09076725858e-09
-1.15578385708e-07
2.43789257063e-08
-8.08298163018e-07
-1.86028287017e-08
1.98729375044e-07
-3.95414204782e-08
-4.09410653208e-08
-4.26217060675e-08
6.93225762337e-08
7.4051035041e-09
-5.94907222003e-08
4.74893623195e-08
4.32279195576e-09
6.08576925219e-09
8.17958783826e-09
-4.42341127338e-08
6.91295836973e-08
8.79126464235e-09
-6.57288120476e-09
4.58092427863e-08
6.65076590465e-09
-5.98560660108e-08
4.85317039271e-08
-8.6591444506e-09
-6.86864246256e-08
8.81372923854e-09
1.03434366149e-08
6.93802364877e-08
-5.00013123815e-08
-1.26493966622e-08
-1.86097408319e-08
-1.78368629087e-08
-1.76088386121e-08
1.42729740741e-08
7.19067168376e-09
4.79533336113e-08
5.34339855227e-08
-6.14125838776e-08
1.0439103316e-08
9.46727654265e-09
-6.93703399761e-08
1.02389869073e-08
8.27722126499e-09
-1.82576020958e-08
-1.7240612787e-08
-1.74120681915e-08
1.86363095305e-09
-1.43295335155e-08
4.9264156607e-09
1.48937719833e-08
-1.73063941201e-09
-4.99101545536e-09
-1.38768582054e-09
2.15649104914e-08
1.74565186522e-09
1.48547743179e-08
-1.55868395141e-09
-1.37541968032e-08
1.68447993203e-09
-5.02252246721e-09
1.95254761413e-08
-1.46675106791e-09
-1.65217747348e-08
1.54189088033e-08
1.95897050026e-09
-2.14352720993e-09
-1.31166268794e-08
2.09290398553e-08
-1.03687138145e-09
6.6292260682e-09
1.4956116298e-08
-2.7208040149e-09
2.2006638737e-09
-1.44436546505e-08
2.25029772194e-09
-1.48329925708e-08
1.47453152971e-08
-2.16224959377e-08
-6.55619377854e-09
2.18525183468e-09
2.25310086187e-08
2.20080643231e-09
-6.84578274642e-09
-1.70451090549e-08
1.63333488621e-09
-1.85927953413e-08
2.36411574399e-09
1.46749661861e-08
-1.5648734027e-08
2.27590777426e-09
5.91545985375e-09
1.53922606321e-08
-6.07062695062e-09
-2.04888773884e-09
2.40009162295e-09
-1.58744013103e-08
-2.50305906505e-09
1.54833271614e-08
2.56886484682e-09
-2.22761311883e-08
-6.74017355962e-09
2.31070504039e-08
2.38657745294e-09
1.49774999855e-08
2.43309630656e-09
1.50509381747e-08
-7.94112484036e-09
2.30152324688e-08
2.86530609502e-09
2.74172206491e-09
-8.77583330754e-09
2.0429265338e-08
1.424770508e-08
2.5373317693e-09
-9.16459188543e-09
3.07657201258e-09
2.26657899003e-08
-2.36808382174e-09
2.31343549093e-09
1.31605565273e-08
1.45912802254e-08
-3.11146832267e-09
-5.7899612016e-09
1.87208842852e-08
3.34035369313e-09
-2.52192820609e-09
1.48481609003e-08
2.50723096347e-09
-8.27036499891e-09
2.34016062246e-08
1.45002730307e-08
-7.35596677623e-09
2.08554108778e-08
2.51295402797e-09
1.4761834736e-08
1.66113564256e-08
2.68356716034e-09
-2.82044459016e-07
-1.71507018109e-07
-3.64442839046e-06
-1.1182093508e-07
-1.5866091748e-07
-1.79147599066e-07
-3.43999894548e-06
-1.68267661473e-07
2.01501465557e-07
-2.34935424866e-07
-3.3715333779e-06
-2.69955009903e-07
-3.40346647136e-06
1.20454829129e-07
1.91891782623e-07
1.21364669635e-07
6.48689709923e-09
1.56828081814e-07
1.16116125717e-08
-2.02649765531e-07
8.33222330933e-09
2.28137517757e-09
1.97481316593e-07
1.22816724132e-07
1.39588583546e-08
-1.94279274502e-07
1.56835511653e-07
1.50915861899e-08
-2.08103692572e-07
1.25538617867e-07
1.43673442531e-08
1.10700166169e-07
-2.00369921213e-07
6.66413309627e-09
-1.36849730464e-08
4.84210006566e-09
-1.68034621862e-09
-5.18223470891e-09
1.67206961298e-08
1.17475428803e-09
1.54201402825e-08
1.35729005626e-09
-5.18412949341e-09
-1.79626196521e-09
-1.28697425568e-08
1.20432060995e-09
-4.48669725112e-09
-1.47358516754e-08
-5.96707812995e-10
-4.19121976288e-09
9.40517319557e-10
-1.39967095285e-08
-3.70608366787e-09
8.72266283228e-10
1.32672441779e-07
-1.75758584212e-08
-2.42428208705e-07
2.06610331825e-08
-1.42749189653e-09
-2.39476216153e-07
5.98804319508e-09
1.13193564537e-07
1.33742018724e-07
-3.2090292147e-09
-7.76347698063e-09
3.35782588582e-09
-1.70460105347e-08
-9.50277201415e-09
-3.26279774183e-09
-5.84271133035e-09
-2.73809428271e-09
3.1154015037e-09
1.72090547652e-08
-2.55504383438e-09
-1.78410347776e-08
-3.12896114031e-09
3.24049431489e-09
3.30244534912e-09
-2.86982089434e-09
-1.62047509676e-08
-9.11409781124e-09
2.53911353452e-09
-6.94835617406e-09
-4.94002933536e-09
-2.43957870303e-09
1.67289130635e-08
-1.68729373152e-08
2.7652278844e-09
-9.01087009818e-09
-1.51180005368e-08
1.00227489687e-08
1.16686049443e-08
-2.49028462964e-08
-1.45626316131e-08
1.10798003187e-08
-7.78253504988e-09
-2.56100906355e-08
-8.77722614082e-08
1.44844769125e-08
3.40145271591e-08
1.38132967184e-08
1.37060899844e-08
-2.74966879973e-08
-8.91642197288e-08
3.19141923605e-08
-2.631206536e-08
-1.13389931471e-07
-7.53960659752e-08
-5.09779984073e-09
7.49976163719e-09
-2.34470784811e-08
1.1134751111e-08
-2.63891915312e-08
-6.75069799351e-09
-2.29293560524e-08
-4.29264223758e-09
-9.04079596863e-08
1.53972493004e-08
1.44808546934e-08
1.49980891639e-08
-8.25579823523e-08
-1.13616345912e-07
-7.05410456081e-08
1.17810765432e-08
1.09931489576e-08
-2.42322594336e-08
8.43904660614e-09
-2.36960987429e-08
9.55816558258e-09
-2.23262911795e-08
1.15607837702e-08
-2.30508388039e-08
-2.0692185978e-08
9.59442208599e-09
-9.713266288e-09
-7.92831742977e-09
-2.17250214565e-08
9.56682626424e-09
-1.00803014887e-08
1.12451034991e-08
-2.25284556494e-08
1.12334055803e-08
-2.12863370711e-08
-9.15810791962e-09
-2.33186355581e-08
-1.11614967091e-08
-1.20107653062e-08
1.22662198085e-08
-2.11780435854e-08
1.20333910518e-08
1.0559199354e-08
-2.17695483217e-08
1.29644477485e-08
-2.13267806622e-08
-2.144524785e-08
-1.08765542729e-08
-5.53929165282e-05
-6.31635736724e-07
2.79235262913e-07
5.56402980955e-05
-5.42237704456e-05
8.93044036218e-08
1.29766459069e-05
1.30431759205e-05
9.43741650236e-06
0.0002218803331
-9.4714652108e-06
0.000220858108917
8.56695652667e-06
5.53792698184e-05
-8.70979440844e-06
5.47523892622e-05
1.25677076782e-07
1.34688480261e-05
1.36587361018e-05
1.36327773549e-05
1.35484136749e-05
2.18771422818e-07
3.62726485357e-06
1.36066602101e-07
-3.26477873955e-07
-3.50968947508e-06
2.75104821007e-07
-9.31594114424e-07
-3.84661354195e-07
-1.82635387817e-07
1.62865071766e-07
1.06092095329e-06
1.2340576817e-07
-1.92772046393e-07
-2.70125728952e-08
2.12869635702e-07
2.72525904665e-08
-1.43743376138e-07
-0.000222389409414
9.85721284016e-07
1.06344168483e-06
-9.57783885099e-06
-5.55751084902e-05
5.575439919e-05
-9.03535238356e-07
1.73979642005e-07
-3.81684795513e-08
-1.01949789255e-07
-1.49181647269e-07
1.58449218817e-08
1.61325001891e-08
1.5477122784e-08
1.54173933525e-08
1.36307671764e-08
1.41307888839e-08
1.2739028226e-08
1.19477505392e-08
-9.3104146164e-07
-1.12314683267e-07
2.08114487947e-07
1.01293362739e-06
-8.71480323396e-07
1.29840559256e-07
4.15538181287e-07
-2.49793201124e-08
-1.59115633578e-07
-1.27205515592e-07
-1.5389943567e-07
2.46858055873e-07
2.46110857928e-07
2.47220176387e-07
2.56995658615e-07
-3.33968502875e-08
-1.90845755954e-08
-2.99961323065e-08
2.79681111926e-07
-3.53637192503e-07
-1.24207998559e-07
-8.55786037154e-07
1.22355988791e-07
4.11421016746e-07
1.19123316242e-07
-4.46399695607e-07
-7.49482910503e-07
-1.03733894253e-07
1.93093597964e-07
1.90862745606e-07
1.9234375859e-07
1.36357725984e-07
6.04680241968e-07
3.01249134475e-06
3.0761350761e-06
3.11442706721e-06
3.00227007164e-06
2.88884991696e-07
8.88392768914e-07
3.0691514819e-06
3.218009129e-06
3.17481013607e-06
3.10684835724e-06
-3.7231677111e-08
-9.01769546414e-07
3.90406040453e-07
1.90847964059e-07
-1.37728228262e-07
-1.52865215065e-07
-1.47640804986e-07
-1.36938340734e-07
2.64637932073e-07
2.70714324898e-07
2.70202522584e-07
2.68959075834e-07
-3.95143649002e-08
-4.79262046462e-08
-5.41534707959e-08
-6.09991695591e-08
-1.21479791729e-07
1.94015705005e-07
2.16849152296e-08
2.12221776496e-08
2.05691886984e-08
2.20619926328e-08
2.07641403562e-08
1.77666988016e-08
1.8484460682e-08
1.98892462246e-08
9.06362716582e-08
6.24686734022e-09
-9.25439490148e-08
-6.98219048927e-08
-3.14727194089e-10
6.57974375282e-08
1.6282396817e-07
-8.85300984923e-08
-1.36149037073e-07
-3.28394014821e-08
1.38680753974e-08
1.43765185733e-08
1.40746980459e-08
1.42067094473e-08
1.0850410807e-07
-2.17793223806e-07
-3.62928384598e-08
-1.24872183653e-07
2.33222429904e-07
6.7821275982e-09
-1.10708371542e-07
1.15692264081e-07
9.43776298619e-10
1.98934442842e-08
1.90608247897e-08
1.89085782068e-08
2.00635730609e-08
-1.14687820938e-07
1.8645671849e-07
-4.84471606342e-08
1.90896548906e-08
2.02177204224e-08
2.00732926809e-08
1.91222712838e-08
-8.43043418599e-08
1.08625960582e-07
7.88490368755e-08
-1.08981249283e-07
1.25926668027e-08
1.38392965569e-05
1.38211020163e-05
1.3896555765e-05
1.39127056323e-05
-1.92876572022e-07
4.80914841358e-08
1.420380843e-07
-1.39297744291e-07
-5.78357777589e-07
1.06847090756e-06
-1.40044917347e-05
3.92026059958e-07
-1.95655156745e-07
-2.43466488288e-07
-2.16800874713e-07
1.34704450411e-07
-3.5665204889e-08
4.34716068076e-08
-1.18907766403e-07
-1.25552925756e-07
2.33532754106e-07
5.34056999712e-07
-1.48868024713e-07
6.1950230064e-07
6.36271548182e-07
6.32533435312e-07
6.23998730199e-07
5.63971720054e-07
6.31053371229e-07
6.42117912996e-07
6.26907696148e-07
6.46604460239e-07
2.10930299988e-07
3.63939973529e-06
-1.57966171224e-07
-3.99720183763e-07
-3.47769880521e-06
1.85055149243e-07
-2.98551806224e-07
-2.30891190866e-07
-2.20399230732e-07
7.24983167025e-07
-3.45576018943e-06
9.37563321253e-07
9.43917158287e-07
9.34625774062e-07
-8.56765497186e-08
-5.22208698221e-08
-6.51291601097e-08
-4.66024393515e-08
-4.99939674764e-08
6.90540229535e-08
3.37942586154e-07
-8.17062054551e-07
4.76263175924e-07
-3.94118406658e-07
3.33564599431e-06
3.33466985963e-06
3.35974810716e-06
3.33761110848e-06
6.23708348406e-07
7.38395042379e-07
-7.14615905038e-07
5.17249670386e-07
3.42910905775e-06
3.45755756285e-06
3.44681264611e-06
3.43784880822e-06
2.79530314128e-07
3.41717409848e-06
3.42651450347e-06
3.44266939975e-06
3.39546098901e-06
8.86086118471e-07
3.3755124825e-06
3.39447939435e-06
3.3777322155e-06
3.39870035458e-06
3.28859072857e-08
-2.03384865134e-07
1.24650066089e-07
-3.11889652518e-08
2.22172463484e-07
-1.45134616071e-07
-2.79117142925e-08
-1.65078499118e-07
-1.62409076734e-07
1.72071773632e-07
3.66764390743e-08
3.86859322992e-08
3.50567858731e-08
3.72906875301e-08
3.56176621348e-08
-1.83842416525e-07
5.71469730901e-08
-1.77449522971e-07
1.79700943567e-07
-5.03114877184e-08
4.24058337916e-08
4.19804451148e-08
4.51213165158e-08
4.52478983407e-08
-6.33247644727e-08
6.64436135228e-08
-9.40058850048e-08
1.28294454303e-08
-1.61171704666e-07
1.7077530849e-07
-1.54071631975e-07
-1.9718297997e-08
3.4758242473e-08
3.31667744128e-08
3.52371540097e-08
3.31123673245e-08
-1.8526137074e-08
5.41474888402e-08
-2.96827566027e-08
1.93354893612e-08
-5.16495236183e-08
2.6375437556e-08
5.28505281759e-08
-2.82963386154e-08
-1.81413791423e-08
-5.01004160333e-08
2.51614281051e-08
-4.94313450353e-09
-7.79053218379e-08
8.10366243856e-08
1.14237545043e-08
1.02112300352e-08
1.06735587514e-08
-7.30161328255e-08
-1.9577532192e-08
7.98600319446e-09
7.61837108854e-09
2.88916055576e-08
2.97070437958e-08
2.93953356772e-08
2.96196778609e-08
5.65134396258e-09
5.27033181936e-09
4.92617437199e-09
4.54376644406e-09
1.40268214299e-07
-9.11732981879e-07
-1.44400991224e-07
3.28718984944e-07
-1.11672270815e-07
-1.10812098487e-07
-1.11417322546e-07
1.02955254061e-06
-9.09092740548e-07
-3.00340972168e-08
1.53602831946e-07
-2.13533543727e-07
3.80653360786e-08
9.60992210468e-07
2.56364401867e-08
-9.1980856782e-07
1.40285483332e-07
-1.99038169104e-07
-3.14434058414e-08
9.84368215905e-07
-1.31564555861e-07
3.33631661752e-07
1.32722048227e-07
-4.1181826908e-07
-8.24740447598e-07
-4.35185504332e-08
5.10355460282e-08
1.48095484217e-07
-1.42387912949e-07
6.35307094277e-07
3.56546952099e-07
-3.2006491565e-07
7.54103784799e-07
7.16399579806e-07
7.3003740746e-07
7.30878502001e-07
-2.76893778366e-07
-6.53135529771e-07
8.10346185e-07
8.24858561542e-07
8.29060653573e-07
8.18391323672e-07
6.01138921201e-07
-2.27373088393e-07
5.74695624638e-07
7.88629063366e-07
8.03704765495e-07
8.10347456037e-07
7.8321945655e-07
7.72013712763e-07
7.36111132529e-07
7.45026497928e-07
7.67335655893e-07
2.800712902e-07
-1.61338808611e-07
-1.61708328268e-09
-5.16643765401e-07
9.15451735246e-08
9.11222221676e-08
9.2479185005e-08
3.18378156271e-08
4.16211636531e-07
8.7801606407e-08
8.91798143032e-08
8.97718545824e-08
-2.95331427228e-07
-7.60479457726e-08
-5.29017006291e-07
3.10587026591e-08
3.20891946282e-08
3.00882044241e-08
-4.66195308687e-08
4.47147883129e-07
6.11148648763e-07
6.2267520795e-07
6.09607093856e-07
6.16626347335e-07
3.71943942093e-07
6.09394820186e-07
6.13825918035e-07
6.14196786887e-07
6.08310185262e-07
5.77170808606e-08
3.49102194203e-07
-1.20763169616e-07
-4.22894279989e-07
-8.04304200464e-07
2.15804752672e-07
2.18051467908e-07
2.15645385177e-07
1.11993298549e-07
1.07952040979e-07
1.09676246541e-07
3.94470986425e-07
2.1988001151e-08
-5.81370335031e-07
4.65257532656e-09
1.2418118077e-07
1.14418137048e-07
1.23005983954e-07
4.98498269045e-07
-1.15622825035e-07
-6.18099234021e-07
5.06584773593e-08
3.97065487583e-08
4.12585965954e-08
5.70272517208e-07
-1.78173102734e-07
6.84856788857e-07
6.83945792172e-07
7.03136726192e-07
6.75535448347e-07
1.17669004844e-07
-5.3271998448e-07
7.29489884756e-07
7.50356017409e-07
7.49854370951e-07
7.40531583502e-07
5.41135745747e-07
-2.01815684923e-08
5.58746940293e-07
7.38434902889e-07
7.70232695936e-07
7.53423369348e-07
7.54157354036e-07
6.78366624774e-07
6.66145649646e-07
6.67231044496e-07
6.81053156669e-07
-2.94757778275e-08
-2.05878335458e-08
-3.55962875902e-08
2.10242910094e-08
3.31213823053e-08
5.61858918869e-08
-7.34352157068e-08
-2.16130198612e-07
1.5238185915e-07
2.45783673503e-07
7.36374371568e-08
-1.82237547067e-07
-3.3101687992e-08
-2.05363862335e-08
3.06237894031e-08
5.52769155577e-08
-7.2943746988e-08
-1.92020260657e-07
1.80364710603e-07
-1.98917138584e-07
7.55075337637e-08
5.21693401078e-08
5.16957166278e-08
5.38387711549e-08
5.03050595775e-08
-2.11146969629e-07
1.69793941353e-07
2.3948710051e-07
-1.96614446355e-07
-7.49549012815e-08
2.29363168576e-08
-8.80087028848e-08
2.34852864396e-08
-1.96503077972e-08
6.19166085838e-08
1.55618444065e-08
1.18351432358e-07
-8.79401664386e-08
-1.07152615567e-08
-9.40046087257e-08
1.50131635213e-08
1.43157736814e-08
1.47488501545e-08
1.46689661513e-08
-1.14818505268e-08
-8.52008927499e-08
1.47993839382e-08
4.3333067781e-08
1.36238154519e-08
1.39637167011e-08
1.33225336786e-08
1.38503094057e-08
-8.04644909795e-08
7.49229978325e-08
-9.89892817711e-10
1.18004383118e-08
1.13115756525e-08
1.27901098632e-07
-8.87561322156e-08
2.10157668671e-08
-1.02100629797e-07
1.45687091897e-08
1.42562147035e-08
1.48137577793e-08
1.38629929264e-08
-8.47542870804e-08
-7.20676692294e-09
4.97876560131e-08
1.34043778153e-08
1.34837456938e-08
1.31034624895e-08
-2.70751040884e-08
-1.34871264311e-07
-1.56284226197e-07
3.55255015594e-08
2.91524032096e-08
2.96051117258e-08
3.00455107641e-08
2.88234930974e-08
1.98645044753e-08
-1.05316694331e-07
-1.43154583447e-08
1.48584316649e-07
1.82036068938e-08
1.65265172692e-08
1.70152881156e-08
1.77892891892e-08
5.78956364107e-08
-1.43589092379e-07
-5.01930905116e-08
-1.82695585172e-07
3.26348400608e-08
3.50433031952e-08
3.44388789099e-08
3.26226303945e-08
1.82681348769e-07
-1.75811680144e-07
-2.01932844234e-07
-6.99858257539e-08
4.64213445973e-08
4.94929723957e-08
4.75485172645e-08
4.86423512665e-08
-1.08195370782e-07
2.89694698837e-08
1.5985757755e-07
1.73235839374e-08
1.64122963558e-08
1.57263600073e-08
1.76715749209e-08
1.83039348984e-07
-1.55146652126e-07
6.66091074634e-08
-1.86555724794e-07
3.73819607299e-08
3.74454716595e-08
3.52805371436e-08
3.98415299793e-08
-1.5113427217e-07
-1.29675890608e-07
-1.83967016104e-08
2.74082613268e-08
2.81438947554e-08
2.80958750789e-08
2.73119083638e-08
-1.74979294837e-08
6.04022818717e-08
-3.54545400751e-08
1.64039186649e-08
-5.90547847734e-08
3.52010532986e-08
-1.24620735808e-08
-4.51591409458e-08
-2.58672780225e-08
2.07392842793e-08
1.20207836581e-08
5.07284250296e-08
-4.80495811378e-09
6.53090584856e-09
1.38404985195e-08
-1.29916469738e-08
5.65020036433e-09
-1.50222881481e-09
-2.50555698381e-09
-1.58511499876e-09
-2.63208505189e-09
7.94041965733e-09
9.64824445434e-09
2.01898741775e-08
-1.9051151924e-08
-9.27984462991e-09
-9.44753275737e-09
4.15973337497e-12
-1.37453734204e-08
-3.48971933578e-09
-1.39052560989e-09
3.60885996894e-09
1.50277332537e-08
-9.34903404523e-12
6.72435995325e-12
-1.25100834816e-11
1.87903537257e-08
-4.68477701952e-08
-3.04826725876e-08
-1.8161488714e-08
2.73928653803e-08
4.93087106968e-08
-6.93225341016e-08
2.01901782032e-07
2.80772372057e-08
2.85535535966e-08
2.79575453555e-08
2.96678604289e-08
-1.40681284175e-07
2.25227727828e-08
2.09217866583e-08
2.12306882714e-08
2.31862266055e-08
8.42104187027e-10
-2.83699358838e-09
2.9774739262e-09
-1.07693011204e-09
9.43456773371e-11
2.18420483188e-08
5.32622950247e-08
-3.93268070141e-08
3.8602939335e-08
-5.29086506964e-08
-2.1471825648e-08
2.3642186983e-09
-2.6184899147e-09
2.61931900865e-08
1.00350414238e-08
-2.67359433222e-08
-8.67375085216e-09
2.47463312115e-09
1.99906595247e-09
2.18174675351e-09
-2.52117819048e-09
-2.35334643444e-09
-2.34519464595e-09
-2.10258256219e-07
1.20776875247e-07
2.29495065379e-07
-1.39993549505e-07
3.28657271651e-08
6.39011761635e-08
-2.01159125665e-07
-6.61630914805e-08
2.21085158162e-07
1.65017175198e-07
-1.90588548075e-07
1.7463982427e-07
6.6842526943e-08
4.48244851353e-08
4.70844009388e-08
4.7470473601e-08
4.99130330862e-08
1.68846918054e-07
-6.05701879658e-08
3.10678578382e-08
2.87684571387e-08
2.9457879596e-08
6.16272011593e-08
-1.54792085814e-07
-1.34088813963e-07
-2.55523450449e-08
2.84050126018e-08
1.07007670114e-07
-1.03870569615e-07
1.8351752418e-08
1.83374914828e-08
1.74113219231e-08
1.74394769649e-08
1.28638757325e-07
2.69315925536e-07
-1.04362030596e-07
1.33374788881e-07
1.26474004239e-07
1.26453514509e-07
1.31891512965e-07
-2.91222213876e-07
-1.46244490937e-07
3.25408992644e-07
1.42790868733e-07
1.48785362446e-07
1.50976122114e-07
1.43965620078e-07
1.67657630249e-07
1.32922761611e-07
1.24588237461e-07
1.25296763239e-07
1.33354808443e-07
1.53393216741e-07
3.17985703883e-07
-1.21157150661e-07
1.42358158006e-07
1.43394931948e-07
1.39721254129e-07
1.47372844778e-07
-2.23114214405e-08
-5.77946874958e-08
6.53353938036e-08
2.20906433109e-08
-7.57384371369e-08
6.8418494987e-08
-1.96356158252e-08
7.09172961606e-09
-9.96348826375e-09
8.52333399213e-09
-6.87324846187e-09
2.08572790665e-08
2.13751687606e-08
-5.98392722236e-08
-2.21914372296e-08
6.80406621463e-08
-7.12445157669e-08
6.38593775971e-08
-5.13465638935e-09
-2.22380758544e-08
-5.59373828256e-09
5.3588873012e-09
9.68245916357e-09
1.79251211269e-08
-5.64524329455e-08
7.07315803778e-08
-2.22610140159e-08
6.41570338128e-08
-7.8486608695e-08
-3.67729898541e-09
-1.51535286684e-08
-6.88623816961e-09
6.13753239239e-09
1.57719061537e-08