/*--------------------------------*- C++ -*----------------------------------*\
| =========                 |                                                 |
| \\      /  F ield         | OpenFOAM: The Open Source CFD Toolbox           |
|  \\    /   O peration     | Version:  2406                                  |
|   \\  /    A nd           | Website:  www.openfoam.com                      |
|    \\/     M anipulation  |                                                 |
\*---------------------------------------------------------------------------*/
FoamFile
{
    version     2.0;
    format      ascii;
    arch        "LSB;label=32;scalar=64";
    class       surfaceScalarField;
    location    "0.01";
    object      phiHbyA;
}
// * * * * * * * * * * * * * * * * * * * * * * * * * * * * * * * * * * * * * //

dimensions      [0 3 -1 0 0 0 0];

oriented        oriented;

internalField   nonuniform List<scalar> 
87017
(
3.62674442931e-06
-6.13409909226e-07
-3.45253372242e-06
7.20096872088e-08
3.96656897466e-07
-8.78433599973e-07
9.36066025359e-07
-2.89060051657e-07
2.08390569112e-07
2.65761681041e-08
4.30861336093e-07
-4.25837791285e-07
-6.9960651375e-07
1.67867700463e-07
1.62490023478e-07
1.95579991554e-08
6.59401365281e-07
7.27560091589e-07
7.06529794251e-07
-6.2951859122e-07
7.16981178697e-08
-3.02604802592e-06
7.10323964101e-07
7.30656903869e-07
4.1865236674e-07
-7.83200885125e-07
1.88908830563e-07
1.94929645445e-07
1.61356294456e-08
-3.32064330502e-06
8.78281082608e-07
-3.60037466442e-07
-2.42332153229e-07
8.8328221738e-07
1.26750405923e-07
8.86592445315e-07
8.83139960046e-07
-3.52197677344e-07
-2.39082862985e-07
6.27565177126e-07
8.03940460839e-07
8.13931053083e-07
4.43076027908e-08
-3.27290315025e-06
8.00259744829e-07
8.16551231662e-07
5.22880392321e-07
2.45181681576e-08
-3.2767718385e-06
3.93454878413e-07
-8.41218183594e-07
-1.40373064788e-07
-1.23845795048e-07
2.38794172382e-07
2.37466821893e-07
6.12085922788e-08
6.33169164134e-08
-7.29210841965e-09
-2.91165543055e-08
9.01014871101e-09
-6.17405055871e-08
6.60516917001e-09
6.37371266455e-09
6.33313043703e-09
6.74774708699e-09
1.17478917058e-09
-4.92960182512e-08
-2.25036017158e-08
5.44512680763e-08
1.55394011474e-10
1.56765845991e-08
8.68003720483e-09
-6.33477154095e-08
-3.37279603295e-08
6.54143329413e-08
-7.42897650351e-09
3.00362795003e-08
9.46948885625e-09
-4.62528432456e-08
5.9193852638e-08
-6.34942255087e-08
-8.16800079448e-09
4.95866143673e-08
-3.54863427881e-08
1.02423009871e-08
6.54347628284e-08
7.63133978408e-09
7.53852610845e-09
7.913729703e-09
7.92653385688e-09
-4.74945043781e-08
5.88583093802e-08
-6.37360562657e-08
1.10814679138e-08
5.09368673578e-08
-2.80100487215e-08
-5.16791740972e-09
-6.1290835507e-08
2.40372553255e-08
-4.70847918905e-08
-2.25431175373e-08
5.25192191571e-08
1.62748976089e-08
1.75279060043e-09
1.76830232405e-09
-1.85462403484e-08
-4.44951502843e-08
-9.17717597992e-10
1.29821512802e-08
-1.71994826319e-08
7.35438392272e-09
1.22243161277e-08
3.42726760897e-08
-6.35358865017e-09
-3.04470904506e-08
-1.88847299151e-08
-4.2740792483e-08
1.35021080129e-08
2.89587915566e-09
-6.62890346344e-07
-3.81669480722e-07
1.41061794417e-07
1.49729217406e-07
-6.86431664299e-09
-2.5447915264e-07
2.5552089624e-07
-7.59987354442e-09
-2.37984482385e-07
-2.29887025727e-08
-1.37265456534e-07
-1.97528425435e-07
2.9331097836e-08
2.82345414487e-08
2.82354493534e-08
2.09497263863e-07
-1.36000182906e-08
2.39143115226e-08
1.52190982798e-07
1.23041649489e-07
4.04388980767e-09
-1.38707037852e-07
1.90859603662e-09
-1.4313279247e-07
1.58037731479e-07
-2.54556710729e-09
-1.51646683483e-07
1.10784927981e-08
1.10874468985e-09
-1.76411817445e-07
2.315143863e-08
2.24950409014e-08
2.32394392031e-08
8.56054072682e-09
-1.92935610933e-08
2.06908556916e-08
-4.26780586474e-09
-1.246615606e-09
1.53564687036e-09
-6.25268510148e-08
6.39390008285e-08
6.4567797863e-09
6.59508806414e-09
6.59568453216e-09
6.40713399287e-09
1.12191072241e-08
5.82552184749e-09
-5.88027023154e-08
-3.41647753823e-09
5.62805536894e-09
5.33065522848e-09
5.57360715569e-09
5.74915803978e-09
2.07615659032e-08
-2.03548510965e-09
-6.17485363019e-09
2.18727603698e-09
-1.96956091483e-08
2.41744324747e-08
-2.34623808052e-08
-6.87917694115e-09
-3.04982905783e-09
3.45665745873e-09
-5.90610156509e-08
5.57792946139e-09
5.49866004205e-09
5.58978775678e-09
5.65055035382e-09
7.78033921719e-09
-1.45673137225e-08
-1.25069348941e-09
1.38214882014e-09
-4.4234604962e-09
1.5886250876e-08
2.05340251596e-07
-1.56775564438e-07
2.05706871471e-08
-2.01890943739e-07
3.77417234471e-08
3.3426194124e-08
3.69243450937e-08
1.73571789517e-07
-1.52526982662e-07
1.15916576676e-08
1.43816150737e-07
2.86469567055e-08
4.34931859462e-08
4.57016156768e-08
4.2834478969e-08
1.92763643671e-07
1.11892257334e-08
-1.5264134931e-07
-6.01569768203e-07
1.25559591347e-07
1.21924889134e-07
-4.50987109548e-08
-3.10203093907e-07
-6.72308983463e-07
-4.61872187238e-08
-1.9572221292e-07
2.09100197302e-07
-1.60603816069e-07
3.61226509167e-08
3.98283733777e-08
4.12161575695e-08
2.79545190571e-08
1.78489285808e-07
-1.56988830854e-07
1.46213578383e-07
1.78377191844e-08
-1.73822743567e-07
4.54932848149e-08
4.93314346805e-08
4.71693126153e-08
1.93367377352e-07
3.37711804869e-08
-1.66846401903e-07
1.77619820809e-08
-1.35536927853e-07
-1.87651981831e-07
2.80390175099e-08
2.723919697e-08
2.73930320441e-08
1.45644691635e-07
1.22410323348e-07
-1.321705794e-07
-1.66525492692e-07
2.31590969945e-08
2.27338964707e-08
2.35594508239e-08
-1.01521129748e-07
1.43769369283e-07
-2.12221619336e-08
1.74256558317e-08
1.75580675833e-08
1.78779223896e-08
-1.19767605814e-07
-1.19115571833e-07
1.06502660751e-07
-1.22878994348e-08
-1.83553646032e-08
-1.02948069353e-07
-1.05077964376e-08
1.88513963691e-08
1.92081535131e-08
1.91293602149e-08
-1.00374176192e-07
1.52152178444e-07
1.71341793854e-08
1.68708745519e-08
1.68598202926e-08
1.67601305531e-08
-1.26314767793e-07
-1.48297525816e-08
-1.25033027112e-07
1.05240800326e-07
-5.18351423275e-09
-1.26065299934e-07
-1.08152380233e-07
-1.22569806195e-07
-1.34078071652e-08
1.84785225789e-08
1.82978678588e-08
1.82470215246e-08
-3.20831336475e-09
2.03148030304e-07
4.21168752447e-08
-5.87922274443e-08
-6.48093702817e-08
-6.52475016839e-08
-2.10651577347e-07
3.05272837684e-08
-2.2678348281e-07
1.71236785288e-07
2.01190258921e-07
-5.91772376244e-08
-6.46160952612e-08
-6.40964205743e-08
-2.17698213492e-07
4.87947806093e-08
-2.32819497659e-07
1.70064339744e-07
3.32105455006e-08
-4.2649682218e-09
-1.63243068379e-09
-1.64781386777e-08
1.01199227744e-09
3.8047805737e-09
1.67563080433e-08
-1.6418666161e-09
5.54781100008e-08
1.55839215367e-08
-5.08126607124e-08
2.00242103205e-09
5.48246189723e-08
4.31006571935e-10
7.60420663857e-10
-4.7881009832e-08
4.51253644368e-09
4.52803071544e-09
4.44469583153e-09
4.55715494198e-09
5.69385390086e-09
-6.12489924042e-10
1.53787293583e-08
1.54321925749e-08
1.48464265602e-08
1.05639071648e-09
1.27406830497e-09
7.94153279541e-10
9.93431544158e-10
-4.93314020581e-08
1.45544390691e-08
1.38102951815e-08
1.41340263783e-08
1.38103679325e-08
5.43267733179e-10
5.35763953349e-10
8.83668936375e-10
7.51654196328e-10
-3.52049195159e-08
8.91914312068e-09
-6.74559271232e-08
-6.99568747016e-09
7.09638950148e-08
-8.1028798592e-09
3.65547878551e-08
9.05134941749e-09
6.60687486602e-08
6.41244172598e-08
2.89510595239e-08
-5.56062937887e-09
-6.20877587979e-08
6.92692346218e-08
-8.96249275806e-09
2.66352584647e-09
-7.01930767657e-08
2.93555980524e-09
2.74142743336e-09
2.98317350902e-09
-6.88861384979e-09
6.48848120724e-08
2.87208329251e-09
7.06967369843e-08
2.50684878383e-09
2.99901751679e-09
3.17854954381e-09
-6.30853120313e-09
-6.77242714006e-08
-3.39508109651e-08
-6.70842789717e-08
7.10804173633e-08
6.3097859232e-08
2.91094453385e-08
-6.04053306564e-08
6.43564643368e-08
-6.56612550895e-08
1.99919171281e-08
-1.94389658474e-08
-4.17718792207e-09
-1.0250007489e-08
4.18948400873e-09
6.70160815483e-08
7.85405525061e-09
7.697376805e-09
7.692243134e-09
7.58968863854e-09
1.18332782484e-08
1.09019590782e-08
6.69287907173e-08
8.53180785383e-09
9.74726356374e-09
8.81130304182e-09
9.82367337284e-09
-7.47113602492e-09
2.79995029247e-09
2.13552924103e-08
2.42770431088e-08
-8.43784524492e-09
-3.68947063821e-09
3.97965462654e-09
6.83931692476e-08
8.75772619132e-09
1.04172365523e-08
9.09155565057e-09
1.0085568006e-08
1.29312606823e-08
1.87121562233e-08
3.39500469463e-09
-1.68587088208e-08
-9.13140913145e-09
2.88788403918e-09
-2.20318327472e-08
6.32923900424e-08
-1.45665605197e-09
-5.64238094894e-08
-5.94613452912e-08
2.37778600074e-08
-3.40896479727e-09
2.18221570614e-08
-1.86872816541e-09
-5.77251750859e-08
-6.61736690649e-08
-5.54589551302e-09
2.28399934028e-09
2.06720960618e-09
2.40417260854e-09
-5.97447132964e-08
1.26053754703e-09
1.56670215506e-09
1.70361925773e-09
-1.07899707404e-09
-5.52639167969e-08
-3.49579774565e-09
-1.81522886887e-08
-4.7466714574e-08
5.30475936429e-08
-9.24506102242e-10
4.93322238917e-08
1.72428082626e-08
-2.69002001681e-09
-4.4991784799e-08
5.3733826838e-08
-7.14183401384e-10
-1.23757929346e-09
-4.4512290045e-08
-2.21440561659e-08
6.04423100498e-08
-5.74833353161e-08
2.39972158123e-08
9.48093176167e-12
-1.76928344252e-08
-4.9802028225e-08
1.6969099441e-08
-4.4890342319e-10
5.24236875644e-08
1.67654835075e-09
-4.56822596279e-08
5.04413512026e-08
1.68880900898e-08
-4.5795263957e-08
-4.34071475012e-08
-1.1047455887e-08
3.95692177127e-09
3.7264798656e-08
-3.15908250367e-08
-3.35202627407e-09
-3.90721534398e-09
1.17248851333e-08
3.96823015111e-08
4.72736158264e-09
-3.49867395602e-08
4.13735393817e-08
-3.60699625831e-08
-3.28861601271e-09
3.57161829228e-08
3.63853864859e-09
-3.02941376366e-08
4.35066218523e-08
-1.21572994472e-08
2.95681414832e-09
-2.37742120813e-09
-3.12803041504e-09
1.28753191896e-08
3.76655984664e-09
1.2697554244e-08
-4.66203972416e-08
6.29289753883e-10
-1.70458317714e-09
-4.1562018654e-08
2.46855598744e-09
1.14317149658e-10
-2.18178231008e-11
1.91897767973e-10
-1.48355170781e-11
-2.43948151799e-09
3.62471127437e-09
3.8007048374e-08
-3.15609935558e-09
-1.40511948978e-08
-3.55915400105e-08
5.94496979802e-09
1.3701638666e-08
4.47512698284e-09
-3.842292372e-08
3.20057134536e-09
-3.98051276366e-08
1.38836368446e-08
-4.15811998865e-08
4.08949058171e-09
4.45172412963e-09
-3.42695236928e-08
-3.79240692659e-08
5.77010385267e-09
-5.76268613315e-09
-3.13548062784e-08
-1.26094753424e-08
7.23448493555e-09
1.25271350841e-08
3.38417806206e-08
8.38331131596e-09
-3.01034027609e-08
3.14583950179e-08
7.00086538742e-09
-5.72390633521e-09
-2.74697798024e-08
1.23195218773e-08
5.87685229404e-09
7.88960131457e-09
-2.71038045141e-08
7.15024142848e-09
3.97877562182e-08
-1.43844111734e-08
-3.49123858706e-08
1.44316190188e-08
-4.11172715373e-08
-3.72075734041e-08
-3.00288164734e-08
-1.30379788481e-08
1.27663200945e-08
3.29794750497e-08
-2.91421942558e-08
-2.58545303137e-08
9.6333479601e-09
-2.98445281637e-06
6.75478849669e-07
6.61685719278e-07
-4.34876086234e-07
6.61566449522e-07
1.15623382794e-08
-5.36582082522e-09
-3.08400578103e-08
-4.51856764352e-09
-2.53754219383e-08
1.12987416172e-08
-3.15776147101e-08
-4.57811522265e-09
-2.61828245368e-08
-3.89719803673e-09
-3.59911099096e-07
2.42331183125e-07
5.49044637993e-08
9.60958493324e-07
5.33178790197e-08
-1.29768994702e-07
7.44680490346e-08
-8.08870174455e-07
2.6685799725e-08
2.52686672948e-07
1.49286662014e-09
4.83332507295e-09
-4.23286804304e-08
7.24198496738e-08
9.2911680732e-09
-6.25260908994e-08
4.72654804095e-08
6.61489319379e-09
8.23185218855e-09
1.02611288187e-08
-4.39169498173e-08
7.21643508739e-08
1.06489674188e-08
-8.62045402794e-09
4.54839806649e-08
8.75942242025e-09
-6.28452784231e-08
4.8265629366e-08
-1.07099020554e-08
-7.16433051723e-08
1.09759024373e-08
1.22702137026e-08
7.23658420621e-08
-4.96884944987e-08
-1.45547990337e-08
-1.93207893706e-08
-1.86093052758e-08
-1.83654095589e-08
1.61772321758e-08
9.26035582965e-09
4.76307158765e-08
5.31839113372e-08
-6.41964279111e-08
1.2646184034e-08
1.15725988802e-08
-7.23339699828e-08
1.25309771006e-08
1.039813258e-08
-1.89393240073e-08
-1.79792708456e-08
-1.81660753254e-08
2.19268074317e-09
-1.47777875553e-08
4.89501550502e-09
1.53936942705e-08
-2.05768917257e-09
-4.95149989582e-09
-1.80770191637e-09
2.21447471923e-08
2.1638395652e-09
1.53012277961e-08
-1.88524987284e-09
-1.42878861383e-08
2.02957658286e-09
-5.05490006019e-09
2.01453089289e-08
-1.91431676604e-09
-1.71572622515e-08
1.59164642522e-08
2.29937339166e-09
-2.5190131233e-09
-1.36742924856e-08
2.15412437529e-08
-1.48762309744e-09
6.6420206093e-09
1.5412052651e-08
-3.07473139804e-09
2.53332603532e-09
-1.49595593269e-08
2.57502061426e-09
-1.53067791186e-08
1.53079718925e-08
-2.22141984644e-08
-6.48464413337e-09
2.60824726677e-09
2.31512350305e-08
2.63100583182e-09
-6.89532650186e-09
-1.75988573226e-08
2.07350221113e-09
-1.91835505297e-08
2.68895749298e-09
1.5195146496e-08
-1.62243931212e-08
2.60181365562e-09
5.85396115357e-09
1.58434057252e-08
-5.99632757217e-09
-2.45571159288e-09
2.80900829394e-09
-1.63281756001e-08
-2.82840860182e-09
1.60222857745e-08
2.91602977235e-09
-2.28313776826e-08
-6.6538397693e-09
2.37040392128e-08
2.7343426998e-09
1.55028867356e-08
2.73667022109e-09
1.54773945858e-08
-7.82171596186e-09
2.35894180645e-08
3.28430489843e-09
3.20748157505e-09
-8.7175836836e-09
2.10537624522e-08
1.46705673048e-08
2.8617560523e-09
-9.03831538242e-09
3.52654920955e-09
2.3365018018e-08
-2.69311526827e-09
2.6404634596e-09
1.37014451505e-08
1.51516777507e-08
-3.51477729183e-09
-5.56361855813e-09
1.93695651086e-08
3.76404152246e-09
-2.84254470465e-09
1.52971173953e-08
2.87015279692e-09
-8.13116860125e-09
2.39874370423e-08
1.49283254911e-08
-7.14347900233e-09
2.15393552306e-08
2.85509206453e-09
1.53754678243e-08
1.72664899043e-08
3.0377897353e-09
-4.95550136835e-07
1.18002509276e-07
-3.64339897889e-06
1.38719335294e-07
-2.09083272639e-07
-2.30545331427e-07
-3.44057473908e-06
8.22599966421e-08
4.13068311276e-07
1.62256921705e-08
-3.37220199044e-06
1.99086352825e-08
-3.40370869227e-06
3.33003300219e-07
1.91818900114e-07
1.34097962307e-07
1.63573078474e-08
1.69895130483e-07
2.13339377246e-08
-2.02623792322e-07
1.86161693654e-08
1.27925105067e-08
1.97362440641e-07
1.34998110778e-07
2.36363792366e-08
-1.94492786359e-07
1.69297383587e-07
2.47143862622e-08
-2.08013469287e-07
1.38183062127e-07
2.46094656224e-08
1.23576553264e-07
-2.00424046217e-07
1.69115529015e-08
-1.41615701805e-08
4.88739990895e-09
-2.05823728218e-09
-5.25385095786e-09
1.72994026336e-08
1.53694733399e-09
1.59408601849e-08
1.75446313008e-09
-5.20093467469e-09
-2.17143443245e-09
-1.33834285567e-08
1.54392137866e-09
-4.57158977678e-09
-1.53048244798e-08
-9.78447759556e-10
-4.27176371744e-09
1.38516165663e-09
-1.45549293381e-08
-3.74883109375e-09
1.24636400208e-09
1.44657684908e-07
-2.8533722972e-08
-2.42040003241e-07
3.14701400851e-08
-1.31596032898e-08
-2.38862535671e-07
1.75198682981e-08
1.26725962531e-07
1.46181934793e-07
-3.60459242049e-09
-7.54983078239e-09
3.77228374484e-09
-1.77638953829e-08
-9.34993210158e-09
-3.65574893619e-09
-5.54239891263e-09
-3.15322065495e-09
3.50858057485e-09
1.78282176226e-08
-2.91447634868e-09
-1.84534580366e-08
-3.55794732506e-09
3.74402211176e-09
3.74829961886e-09
-3.32773953881e-09
-1.68857920643e-08
-8.97471900504e-09
2.96347311257e-09
-6.75481148165e-09
-4.65509082847e-09
-2.79521237729e-09
1.73094563897e-08
-1.74677811048e-08
3.18737726336e-09
-7.5361529832e-09
-1.5364929543e-08
8.54210574886e-09
1.20287791995e-08
-2.80655465918e-08
-1.48223113982e-08
1.15382196749e-08
-6.33791400023e-09
-2.86441164565e-08
-8.837928972e-08
1.47314208815e-08
2.81436017249e-08
1.4008825998e-08
1.39047261797e-08
-2.17479076755e-08
-1.01932090386e-07
2.60447041889e-08
-2.05377037314e-08
-1.13867748795e-07
-8.81722571229e-08
-3.75705813716e-09
6.07690821415e-09
-2.62243115013e-08
1.15449909993e-08
-2.93234545909e-08
-5.33913640027e-09
-2.54764812542e-08
-3.04156066391e-09
-9.10164452656e-08
1.5625564975e-08
1.46661519615e-08
1.516916444e-08
-9.60655971918e-08
-1.14103132273e-07
-8.39917826211e-08
1.20989405019e-08
9.55901470935e-09
-2.74804365003e-08
7.07000766861e-09
-2.66581336219e-08
8.26916156899e-09
-2.52337549001e-08
1.1898392806e-08
-2.63977123629e-08
-2.36311474089e-08
8.18660023758e-09
-1.00433022058e-08
-6.59970208441e-09
-2.47827948407e-08
9.88889012939e-09
-8.68448895589e-09
9.83937354831e-09
-2.57726932937e-08
9.78379207519e-09
-2.45007037215e-08
-7.80636501447e-09
-2.64520860395e-08
-1.13968620152e-08
-1.06394348251e-08
1.09458585548e-08
-2.4541084375e-08
1.06430446093e-08
1.08022861646e-08
-2.51091757684e-08
1.15709410622e-08
-2.47618665627e-08
-2.47914019377e-08
-1.11298432429e-08
-5.53941348268e-05
6.08407577632e-07
-9.5821889594e-07
5.56416191268e-05
-5.42271875674e-05
1.32328723336e-06
1.29803923378e-05
1.30458580993e-05
-4.60341295908e-07
0.000221883056013
4.2606754329e-07
0.000220861325167
-1.34260722739e-06
5.5381920234e-05
1.20221403306e-06
5.47563687743e-05
1.36464925754e-06
1.34714979556e-05
1.36602387673e-05
1.36348376429e-05
1.35502045539e-05
2.38165834373e-07
3.62699694059e-06
-1.53596825206e-07
-3.45736376388e-07
-3.50971787212e-06
2.78021589944e-07
-9.30663065829e-07
-3.88536148891e-07
-2.17871687144e-07
1.98537042472e-07
1.05888874897e-06
1.32689315878e-07
-1.92697868246e-07
-3.63520598335e-08
2.12524871581e-07
3.60586034419e-08
-1.52350797871e-07
-0.000222390235527
-2.53570860384e-07
-1.76033406092e-07
3.29734298764e-07
-5.55756805536e-05
5.5754565578e-05
3.34929140655e-07
1.77520999365e-07
-4.23047793038e-08
-1.02009778949e-07
-1.52590455441e-07
1.5877762998e-08
1.61276515758e-08
1.55044666988e-08
1.54681642117e-08
1.46829794613e-08
1.51383854145e-08
1.36735583836e-08
1.29605487308e-08
-9.30576879317e-07
-1.52931439071e-07
2.11185790502e-07
1.01162840132e-06
-8.71275818579e-07
1.70014959876e-07
4.50696384626e-07
-3.49088088372e-08
-1.68294132762e-07
-1.36063864883e-07
-1.62548786805e-07
2.46275668416e-07
2.45467128805e-07
2.46551992336e-07
2.56242146546e-07
-4.30713459753e-08
-2.98301784733e-08
-4.04657291872e-08
2.81712690846e-07
-3.56010614284e-07
-1.60050763502e-07
-8.55712477008e-07
1.58021049523e-07
4.46011336298e-07
1.54381358019e-07
-4.80749322931e-07
-7.50045303837e-07
-1.39286399846e-07
1.92951998852e-07
1.90916509682e-07
1.92338955727e-07
5.98978312973e-07
1.06551471339e-06
3.01455491165e-06
3.07850917091e-06
3.11643150246e-06
3.00447816804e-06
-1.75963269633e-07
1.03999292994e-06
3.07036410143e-06
3.21900823235e-06
3.17606848376e-06
3.10785484762e-06
-4.67438497624e-08
-9.00904592605e-07
4.07249157779e-07
2.26356218771e-07
-1.42411165087e-07
-1.57545068022e-07
-1.51877694628e-07
-1.41241899613e-07
2.63892708304e-07
2.70024425518e-07
2.69425809676e-07
2.68106652117e-07
-4.81553037858e-08
-5.72277711e-08
-6.26396498576e-08
-6.55363938101e-08
-1.2151380247e-07
1.9685670099e-07
2.15198341079e-08
2.1204999392e-08
2.04883614073e-08
2.19600078906e-08
2.17504697992e-08
1.88574501133e-08
1.94334601665e-08
2.09284438596e-08
9.98242239755e-08
1.6401423656e-09
-9.30084926969e-08
-7.8989447868e-08
4.14191096076e-09
6.64110517299e-08
1.67088484733e-07
-8.87133525268e-08
-1.40409806063e-07
-3.7051039473e-08
1.3886412106e-08
1.44402531223e-08
1.41175853756e-08
1.4237068308e-08
1.14044072538e-07
-2.17486511505e-07
-4.50986614034e-08
-1.29164777236e-07
2.33017718882e-07
1.59288103312e-09
-1.11140541287e-07
1.2419013336e-07
5.99245432281e-09
1.9966434822e-08
1.91797112365e-08
1.89937672391e-08
2.01407632307e-08
-1.14771023171e-07
1.89941389189e-07
-5.2951988109e-08
1.90957676346e-08
2.01569740979e-08
2.00238767529e-08
1.91359273935e-08
-9.40874905621e-08
1.17828102578e-07
7.93824648995e-08
-1.0945205082e-07
7.46534083707e-09
1.38398427212e-05
1.38219250625e-05
1.3896949162e-05
1.39131021067e-05
-3.47688747229e-07
-4.16690350092e-07
-3.23062569706e-07
-2.94023809807e-07
6.60476090695e-07
-3.24156600643e-07
-1.40046980391e-05
5.46173914205e-07
-2.53807689145e-07
-2.62912114172e-07
-2.75132618104e-07
1.38514257322e-07
-4.0088462543e-08
4.78374000389e-08
-1.22898624507e-07
-1.25678531072e-07
2.90627384823e-07
5.8866078731e-07
-2.06860679345e-07
6.20130657813e-07
6.37010085679e-07
6.33179988238e-07
6.24709788817e-07
5.79894627115e-07
6.31646550135e-07
6.42577205005e-07
6.27449868858e-07
6.47131203569e-07
3.46032372765e-07
3.63897994094e-06
1.31675632529e-07
-5.34261996325e-07
-3.47790151261e-06
-1.04492612597e-07
-3.05455250035e-07
-2.33156564647e-07
-2.27329638803e-07
7.43951583831e-07
-3.45505503267e-06
9.3713659682e-07
9.43514746134e-07
9.34317083473e-07
-1.26103541134e-07
-9.27931705634e-08
-1.10584203226e-07
-9.23009282972e-08
-9.01970797436e-08
1.09520613088e-07
3.73499207081e-07
-8.17173229254e-07
9.39066693496e-07
3.77232713258e-07
3.33702329308e-06
3.33580098769e-06
3.36050713968e-06
3.33859773392e-06
-1.48987232451e-07
-3.43822967303e-07
-8.68770155542e-07
6.70547404519e-07
3.42923324623e-06
3.45742941291e-06
3.4467439023e-06
3.43782158367e-06
7.42343197543e-07
3.41745106738e-06
3.42665947943e-06
3.44276778825e-06
3.39589157852e-06
-1.95958212364e-07
3.37596612721e-06
3.39511216799e-06
3.37809650249e-06
3.39888171956e-06
4.22474305829e-08
-2.03186994918e-07
1.32387515498e-07
-3.9989055711e-08
2.219293374e-07
-1.51853623964e-07
-3.53998592293e-08
-1.7404957175e-07
-1.62580684222e-07
1.79983663143e-07
4.37385452345e-08
3.85806275957e-08
3.49889876866e-08
3.72008805338e-08
3.55401038529e-08
-1.90955420941e-07
6.4357381086e-08
-1.77515345828e-07
1.85746852476e-07
-5.70731066894e-08
4.22927161194e-08
4.18825024008e-08
4.49820099112e-08
4.50834525622e-08
-7.31324881929e-08
6.70695263262e-08
-9.4503208772e-08
8.26939070624e-09
-1.70652336031e-07
1.79401147879e-07
-1.54236911918e-07
-2.69649497696e-08
3.47054547963e-08
3.31319300206e-08
3.51808788887e-08
3.30848816292e-08
-1.9488427223e-08
5.44947386151e-08
-2.96105783077e-08
2.01932190148e-08
-5.1778312886e-08
2.62247235584e-08
5.32613144113e-08
-2.8240990903e-08
-1.90611720746e-08
-5.03278280168e-08
2.50341589171e-08
-7.65039928782e-09
-7.82111608882e-08
8.50610045275e-08
1.40268076524e-08
1.02636132589e-08
1.07355022985e-08
-7.31584488463e-08
-2.20370062751e-08
8.01909346898e-09
7.64044001012e-09
2.94380798989e-08
3.02007646467e-08
2.99766027262e-08
3.00834030129e-08
6.33210539902e-09
5.92293271105e-09
5.55507080349e-09
5.13492070742e-09
1.80248560766e-07
-9.11383085521e-07
-1.85053678534e-07
3.49906218338e-07
-1.17748607225e-07
-1.16214304917e-07
-1.1738993928e-07
1.02722440092e-06
-9.0886504506e-07
-8.52236511064e-08
1.89806981636e-07
-2.49544570045e-07
9.33438048489e-08
9.59976359436e-07
8.11937850121e-08
-9.19491313993e-07
1.62288297508e-07
-2.20767594559e-07
-8.71036760794e-08
9.83354895571e-07
-1.67000772469e-07
3.49863880529e-07
1.68172723616e-07
-4.27768471452e-07
-8.2464760953e-07
-4.83497753575e-08
5.58642543217e-08
1.51823476675e-07
-1.42406965208e-07
6.91557251726e-07
4.5164750363e-07
-4.15113594492e-07
7.54462458518e-07
7.16993988429e-07
7.30536654682e-07
7.3141190343e-07
-4.10825558658e-07
-6.70879969468e-07
8.10322805824e-07
8.24577582406e-07
8.28899867111e-07
8.18248002117e-07
6.18458952127e-07
-3.60888912822e-07
6.30636237289e-07
7.887528929e-07
8.03773570696e-07
8.10265069277e-07
7.83469308821e-07
7.7222340736e-07
7.3633158209e-07
7.45371357285e-07
7.673538747e-07
3.15311073614e-07
-1.97429052801e-07
1.53659529111e-08
-5.18049874217e-07
9.19662877981e-08
9.15253168212e-08
9.28994448685e-08
1.45261966647e-08
4.35957463467e-07
8.80201493537e-08
8.93845217406e-08
9.00435945278e-08
-3.15603609163e-07
-9.27012781079e-08
-5.3000851258e-07
3.48538681427e-08
3.65181297708e-08
3.39582248334e-08
-1.05263331676e-07
5.41353656227e-07
6.11948773327e-07
6.23508465507e-07
6.10373507849e-07
6.17515310403e-07
5.05188920838e-07
6.10234543377e-07
6.14876619319e-07
6.15181440731e-07
6.09139465269e-07
-1.56502928521e-09
3.69803326087e-07
-1.55786978151e-07
-4.43134032339e-07
-8.04353739862e-07
2.15571723683e-07
2.17872482503e-07
2.15547285335e-07
1.12289071147e-07
1.08307762133e-07
1.09915574866e-07
4.28840075774e-07
4.37338265045e-08
-5.82678863663e-07
-1.72405863711e-08
1.24183070397e-07
1.1458089251e-07
1.23081834644e-07
5.17532413648e-07
-1.36800425243e-07
-6.18889941596e-07
5.60393809623e-08
4.46558933875e-08
4.66673937405e-08
6.64808919189e-07
-2.75154536471e-07
6.85597877839e-07
6.84643352417e-07
7.03757237295e-07
6.76308452303e-07
2.52061537035e-07
-6.66292618036e-07
7.30090744141e-07
7.50899428186e-07
7.50279021795e-07
7.41219282693e-07
6.73652549091e-07
-1.55225446883e-07
6.52905883285e-07
7.38884631181e-07
7.7038216936e-07
7.53704697189e-07
7.54493479584e-07
6.79307669954e-07
6.67145672699e-07
6.68156209279e-07
6.82072247129e-07
-1.26349403773e-07
-2.16191087533e-08
-3.5513491877e-08
2.19520677997e-08
3.28899035656e-08
5.62659461694e-08
-8.02444945404e-08
-2.1570534495e-07
1.54399098905e-07
2.44706258918e-07
7.99001924183e-08
-1.8433280265e-07
-3.30271615985e-08
-2.14805529877e-08
3.04192826169e-08
5.54311305984e-08
-7.96355891525e-08
-1.9171408298e-07
1.84875673683e-07
-2.02414916176e-07
8.1771232967e-08
5.19349027904e-08
5.14283732314e-08
5.35232677761e-08
5.01187096783e-08
-2.10660648252e-07
1.72548803722e-07
2.38570538022e-07
-1.98599566907e-07
-8.12439678991e-08
2.01320618598e-08
-8.82738261786e-08
3.29726196828e-08
-1.68488218928e-08
6.22028128078e-08
2.00418949359e-08
1.25486850396e-07
-8.81914845315e-08
-1.50694296692e-08
-1.00928092089e-07
1.51142183759e-08
1.43637970026e-08
1.48329842246e-08
1.47366525325e-08
-8.67334365402e-09
-8.54981033448e-08
1.20123115762e-08
5.07745743807e-08
1.37365997493e-08
1.40529540656e-08
1.34064647246e-08
1.3906847441e-08
-8.07888777395e-08
7.96146072545e-08
-3.6818558062e-09
1.18787800045e-08
1.13820833978e-08
1.3445092275e-07
-8.89479863705e-08
2.53289724535e-08
-1.08364532988e-07
1.46316928472e-08
1.42752914057e-08
1.48854768194e-08
1.38791881168e-08
-8.50864408617e-08
-4.45945281096e-09
5.65011685995e-08
1.35093724013e-08
1.35944271801e-08
1.32005407112e-08
-3.39621974399e-08
-1.35010282055e-07
-1.64422726426e-07
4.20870114837e-08
2.91482969548e-08
2.95854851893e-08
3.00206379444e-08
2.88305495289e-08
2.49626023423e-08
-1.05491653278e-07
-1.92493967081e-08
1.54955026525e-07
1.82124612889e-08
1.65234995928e-08
1.70468021321e-08
1.77692290848e-08
6.44854727494e-08
-1.43660818394e-07
-5.6460426763e-08
-1.88646460069e-07
3.25868169774e-08
3.49638531365e-08
3.43696784334e-08
3.25672464581e-08
1.87874741005e-07
-1.75604761752e-07
-2.05546654826e-07
-7.6051938806e-08
4.63073856085e-08
4.92715102415e-08
4.74004781286e-08
4.84595806573e-08
-1.08351639315e-07
3.38378538458e-08
1.65612117461e-07
1.73169604755e-08
1.63634137314e-08
1.56889409789e-08
1.76054289006e-08
1.8959171411e-07
-1.55177411073e-07
7.27518903708e-08
-1.91873647269e-07
3.72885915331e-08
3.73389398179e-08
3.52010772873e-08
3.97037809269e-08
-1.59996388022e-07
-1.29876894981e-07
-2.50225354585e-08
2.74495902429e-08
2.81506935511e-08
2.81050435877e-08
2.73387983853e-08
-1.84092822996e-08
6.04417473222e-08
-3.53093884874e-08
1.72467756956e-08
-5.87469629135e-08
3.48515597617e-08
-1.3291712519e-08
-4.5199107183e-08
-2.58547140789e-08
2.06412629141e-08
1.28074783935e-08
5.0420194157e-08
-5.11056538175e-09
6.68142137142e-09
1.42741744993e-08
-1.27404754167e-08
5.93466562238e-09
-1.57578289731e-09
-2.50363418703e-09
-1.6537473926e-09
-2.62745580618e-09
7.75970289336e-09
1.00149082582e-08
2.06229489121e-08
-1.93674991501e-08
-9.56984731049e-09
-9.24351946519e-09
2.48347126929e-12
-1.39474084431e-08
-3.76089124406e-09
-1.37613410506e-09
3.86336786882e-09
1.51732978489e-08
-1.10427255848e-11
4.32614867766e-12
-1.48706734569e-11
1.99037337023e-08
-4.75999495666e-08
-3.04776499553e-08
-1.9157279109e-08
2.72924833796e-08
4.97973658782e-08
-7.42657551956e-08
2.05505166279e-07
2.78937751388e-08
2.83641545667e-08
2.78532803379e-08
2.94067136945e-08
-1.40510449403e-07
2.35711446115e-08
2.21734115615e-08
2.24281105388e-08
2.43814901569e-08
9.03295706712e-10
-2.82434278265e-09
2.9596810333e-09
-1.10055515944e-09
1.07385034459e-10
2.3165751057e-08
5.40936780978e-08
-3.92673906234e-08
3.85168808149e-08
-5.34217291277e-08
-2.27017307999e-08
2.25220766242e-09
-2.67826823647e-09
2.65552175367e-08
1.03496061488e-08
-2.66922444133e-08
-8.37577141366e-09
2.36092014701e-09
1.86963837741e-09
2.06127497562e-09
-2.57571433231e-09
-2.42860949044e-09
-2.41138854005e-09
-2.10041994505e-07
1.27881207292e-07
2.29172686972e-07
-1.4625871623e-07
4.16513948286e-08
7.12035557263e-08
-2.01031856767e-07
-7.31032321512e-08
2.20166091091e-07
1.68969375764e-07
-1.90630499776e-07
1.80169655035e-07
7.36305156841e-08
4.47003972365e-08
4.69386234564e-08
4.72899511228e-08
4.97018231471e-08
1.70012115757e-07
-6.46293821151e-08
3.09885556028e-08
2.87219669981e-08
2.94023489713e-08
6.55631259128e-08
-1.55890544946e-07
-1.34063828794e-07
-2.82690655202e-08
3.10672530694e-08
1.08440858162e-07
-1.0408550359e-07
1.83767449733e-08
1.83651641085e-08
1.74430261452e-08
1.74697946774e-08
1.40288965151e-07
2.75113200031e-07
-1.16412839074e-07
1.33580488435e-07
1.2669813536e-07
1.26674915511e-07
1.32098988303e-07
-2.91986757579e-07
-1.62298457195e-07
3.26327506488e-07
1.42934701414e-07
1.48881999466e-07
1.5103793419e-07
1.44085981e-07
1.83943554506e-07
1.33151004085e-07
1.24843977516e-07
1.25543915072e-07
1.33572491887e-07
1.65300293627e-07
3.23910465694e-07
-1.37634465653e-07
1.42488457972e-07
1.43514772629e-07
1.39868456087e-07
1.47468354406e-07
-2.43020756157e-08
-5.73520647314e-08
6.4718443642e-08
2.38852853358e-08
-7.78388482644e-08
7.0690663993e-08
-2.01234629154e-08
7.5175807725e-09
-9.76743339691e-09
8.28306925115e-09
-7.16670062047e-09
2.10949340999e-08
2.34650824989e-08
-5.93735261435e-08
-2.40586488853e-08
6.76377362536e-08
-7.29879764531e-08
6.6106072595e-08
-5.4901177638e-09
-2.26770024024e-08
-5.39645892898e-09
5.63922531993e-09
9.38299421074e-09
1.81786217115e-08
-5.59916591292e-08
7.29535807212e-08
-2.41106373603e-08
6.35656153455e-08
-8.05736350542e-08
-3.97185799945e-09
-1.5515141814e-08
-6.83026377307e-09
6.03609710272e-09
1.60329716067e-08
4.08273428343e-09