/*--------------------------------*- C++ -*----------------------------------*\
| =========                 |                                                 |
| \\      /  F ield         | OpenFOAM: The Open Source CFD Toolbox           |
|  \\    /   O peration     | Version:  2406                                  |
|   \\  /    A nd           | Website:  www.openfoam.com                      |
|    \\/     M anipulation  |                                                 |
\*---------------------------------------------------------------------------*/
FoamFile
{
    version     2.0;
    format      ascii;
    arch        "LSB;label=32;scalar=64";
    class       pointVectorField;
    location    "0.01";
    object      pointDisplacement;
}
// * * * * * * * * * * * * * * * * * * * * * * * * * * * * * * * * * * * * * //

dimensions      [0 1 0 0 0 0 0];

internalField   nonuniform List<vector> 
45536
(
(0.00106003845992 8.41985106179e-06 5.55111512313e-17)
(0.000530812853616 4.21858375241e-06 4.16333634234e-17)
(2.50230339944e-08 1.33960718724e-08 4.16333634234e-17)
(0.00159114855648 1.26500791709e-05 1.38777878078e-17)
(0.00106327366607 8.45969899908e-06 1.73472347598e-17)
(0.000534290145422 -0.000261875512806 1.38777878078e-17)
(2.25878767213e-06 -0.000265951270992 1.38777878078e-17)
(0.000268195832812 -0.000263969730374 1.38777878078e-17)
(0.000268041537378 -0.000263781907416 3.46944695195e-17)
(0.000532886923127 -0.000261161953183 4.16333634234e-17)
(0.00026548052877 2.11259329626e-06 4.16333634234e-17)
(2.14702516931e-06 -0.000265430628998 4.16333634234e-17)
(0.000135200797115 -0.000264944185004 1.73472347598e-17)
(0.000267578908384 -0.000263329462435 4.16333634234e-17)
(0.000533842967967 -0.000261631919721 2.08166817117e-17)
(2.17916003161e-06 -0.000265858958793 2.77555756156e-17)
(0.00080040618184 -0.00025975918564 1.30104260698e-18)
(6.83466233196e-05 -0.000198671432132 0)
(0.00106546246869 -0.00025737202013 1.04083408559e-17)
(0.000267422149638 -0.000197578194274 0)
(0.000134619972795 -0.000198384908275 0)
(0.000800147743392 -0.000259665017907 1.38777878078e-17)
(0.0010658922103 -0.000257477315304 1.30104260698e-18)
(0.000200766232979 -0.000198126555616 0)
(0.00013457368275 -0.000198369303808 0)
(6.82693692924e-05 -0.000198779076243 0)
(0.000200944239444 -0.000198013314529 0)
(0.000533205503877 -0.000128840719686 1.38777878078e-17)
(0.000401238371006 -0.000262940294872 6.93889390391e-18)
(0.000267557283698 -0.000197497243994 0)
(0.00020069166939 -0.000198191047924 0)
(0.000101486160985 -0.000198486614442 0)
(0.000267493646171 -0.000197529700653 0)
(0.000201038149449 -0.000197971031566 0)
(0.000200869510002 -0.000198057041714 0)
(0.000167711571552 -0.000198218045087 0)
(0.000134043594588 -0.000131921225158 0)
(0.000267095627521 -0.000130951499605 1.73472347598e-17)
(0.000134348038476 -0.00019843819765 0)
(0.000134103030367 -0.000131936584822 1.38777878078e-17)
(0.000267013399162 -0.000131001832192 0)
(0.000533279962695 -0.000128894577956 1.30104260698e-18)
(0.000101767669541 -0.000198192038323 0)
(0.000400107011136 -0.000129983368834 0)
(0.000400149825298 -0.000129950941297 6.93889390391e-18)
(0.000101234463697 -0.000165193619755 0)
(0.000118048643956 -0.000181722001286 0)
(8.51692373423e-05 -0.000181535737487 0)
(0.000200472068326 -0.000131496563497 0)
(0.000134139629445 -0.000181904977766 0)
(0.000118108693862 -0.000198280367414 0)
(0.000167444396002 -0.000198367141595 0)
(0.000134519559215 -0.000198372930936 0)
(8.52106154557e-05 -0.000198276358519 0)
(6.80787992494e-05 -0.000165399332699 0)
(0.000200483399734 -0.000164915277985 0)
(0.000134256040749 -0.000165159901617 0)
(0.000101626138097 -0.000181572023653 0)
(0.000400152442121 -0.000129911039279 1.04083408559e-17)
(0.000533274502889 -0.000128874199521 3.46944695195e-18)
(0.000167141103824 -0.000165194365429 0)
(0.000134175867671 -0.000165202074862 0)
(0.000200424771043 -0.000164974850763 0)
(0.000167244295013 -0.000198514104954 0)
(0.000133858818515 -0.000182106898009 0)
(0.000101547058073 -0.000198411049357 0)
(0.000101185284693 -0.000165256311895 0)
(0.000117903019664 -0.000181729554078 0)
(8.50952805281e-05 -0.000181616199139 0)
(0.000101777225935 -0.000181508517558 0)
(0.000167315826349 -0.000165069968638 0)
(0.000150471222958 -0.000182012551211 0)
(0.00010954702603 -0.000173842744802 0)
(0.000126096192496 -0.000190350879157 0)
(0.000125584847405 -0.000173949469794 0)
(0.000109679925325 -0.000190481997446 0)
(9.2908412313e-05 -0.000173975638993 0)
(9.32916030836e-05 -0.000190251875833 0)
(0.000150828988809 -0.000198445538187 0)
(0.000200642200119 -0.000164797398042 0)
(0.000167122972434 -0.000181924279836 0)
(0.000117805280192 -0.000173532380227 0)
(0.000125795173766 -0.000182022743137 0)
(0.000118185970862 -0.000189955599586 0)
(0.000110020550498 -0.000181528937968 0)
(0.000117932935889 -0.000182095124094 0)
(8.52521778877e-05 -0.000189840056614 0)
(8.48500040097e-05 -0.00018202709746 0)
(9.34843585085e-05 -0.000181525233489 0)
(8.50949284308e-05 -0.000173252115866 0)
(0.000133984964202 -0.000190340585615 0)
(0.000167291178111 -0.000181783960904 0)
(0.000167325222354 -0.00019844636698 0)
(0.00010170257868 -0.000173202534773 0)
(0.00010129416244 -0.000182228019561 0)
(0.000133726647934 -0.000173858881754 0)
(0.000101866204648 -0.000189788827171 0)
(0.000133672748402 -0.000182250554463 0)
(0.000125978983116 -0.000190216034701 0)
(0.000200578651897 -0.000164841035922 0)
(0.00016762724545 -0.000198260251503 0)
(0.000167406401383 -0.000165010140702 0)
(0.000150657113945 -0.000181886467797 0)
(0.000150624345421 -0.000198563784283 0)
(0.000167186380318 -0.000181863071467 0)
(0.000133795277927 -0.000190471491599 0)
(0.000133561183212 -0.000174002373631 0)
(0.00011786649262 -0.00017377629643 0)
(0.000109901880565 -0.000173271229367 0)
(0.000109613469298 -0.000182161572465 0)
(0.000101227719171 -0.000173909191898 0)
(0.000125583564976 -0.000173808907162 0)
(0.000110100660783 -0.000189818902929 0)
(0.000125917073034 -0.000182144770782 0)
(0.000117999391915 -0.000190415549074 0)
(0.00010152963047 -0.00019030907919 0)
(9.34159535491e-05 -0.000173220798265 0)
(9.29748555814e-05 -0.000182294466657 0)
(8.49717216031e-05 -0.000190286379137 0)
(9.35787425842e-05 -0.000189802305091 0)
(0.000117875852 -0.000181768109125 0)
(0.00010978395365 -0.000173286548032 0)
(0.00011399420806 -0.000177618666561 0)
(0.000134463620963 -0.00019838935191 0)
(0.000101619602818 -0.000198333793821 0)
(0.000101559362607 -0.000173251601224 0)
(0.000117690987836 -0.000165202752805 0)
(0.000101402798432 -0.000181789459058 0)
(8.47431369243e-05 -0.000165207128543 0)
(0.00011794905455 -0.000181713212202 0)
(0.000117965809033 -0.000177610906292 0)
(0.000114098429699 -0.000181587420444 0)
(0.000118086294699 -0.000181815948289 0)
(0.000134342848005 -0.000181788340469 0)
(0.000118037458608 -0.000198381573776 0)
(0.000117765303384 -0.000173467205345 0)
(0.000109815294215 -0.000181610448321 0)
(0.000101720629876 -0.00018150257992 0)
(0.000113706759325 -0.000173809520616 0)
(0.000109809086621 -0.00017347324532 0)
(0.000109580247664 -0.000178002158633 0)
(0.000105387452467 -0.000173875967712 0)
(0.000126137496658 -0.000194502241338 0)
(0.000125984081759 -0.000186254394763 0)
(0.000122158965478 -0.000190382326164 0)
(0.000122026066184 -0.00017374307352 0)
(0.0001258348454 -0.000178009709651 0)
(0.000109822603518 -0.000194485587391 0)
(0.000109646690933 -0.000186320986297 0)
(0.00011383965862 -0.00019044877326 0)
(0.000105520351761 -0.000190515220356 0)
(9.70679858764e-05 -0.000173942416083 0)
(9.29416339472e-05 -0.000178135052825 0)
(8.87486790179e-05 -0.000174008863179 0)
(9.33240515751e-05 -0.000194414490678 0)
(9.74112493244e-05 -0.00019027967375 0)
(9.31865200266e-05 -0.000186195270784 0)
(8.91318059988e-05 -0.000190277113433 0)
(0.000101643716171 -0.000194352832982 0)
(0.000117840924334 -0.0001736550968 0)
(0.000113929405487 -0.000173365257246 0)
(0.000109984274567 -0.00017738712014 0)
(0.000109974974382 -0.00018164271874 0)
(0.000117899714254 -0.000177935710262 0)
(0.000113773202594 -0.000182128348279 0)
(0.000122092509452 -0.000182061901184 0)
(0.000117966157523 -0.000186254537925 0)
(8.89775597734e-05 -0.000182085183164 0)
(8.49319193315e-05 -0.00018610305658 0)
(0.00010583024366 -0.000173214294453 0)
(0.000101592834295 -0.000173382322244 0)
(0.000105453895735 -0.000182194795375 0)
(0.000101260940806 -0.000178068605729 0)
(0.000101327384074 -0.000186387433393 0)
(9.71344291448e-05 -0.000182261243747 0)
(8.50395351084e-05 -0.000194416763138 0)
(0.000118032613549 -0.000194574962906 0)
(0.000118054920912 -0.000198347888503 0)
(0.000101469816356 -0.000181720234761 0)
(0.000117870574217 -0.000181787320308 0)
(0.000109705365132 -0.000173327111202 0)
(0.000134280009136 -0.00018182079075 0)
(0.00011777131552 -0.000173479936678 0)
(0.000109902112235 -0.000181560234907 0)
(0.000101639778601 -0.000173199841525 0)
(0.000114036110862 -0.000177464979652 0)
(0.000105745747013 -0.000194395148366 0)
(9.74896566698e-05 -0.000194376427336 0)
(0.000113894019533 -0.000173534866295 0)
(0.000109903952969 -0.000177550698419 0)
(0.000113739980959 -0.000177968934448 0)
(0.000118000686669 -0.000177717654796 0)
(0.000114082193187 -0.000181694577202 0)
(0.000105706621494 -0.000173416556633 0)
(0.000105420674101 -0.000178035381544 0)
(0.000122125731086 -0.000186221315015 0)
(0.000122192187113 -0.000194541739996 0)
(0.000122059287818 -0.000177902487352 0)
(0.000113806424228 -0.000186287762111 0)
(0.000105487117369 -0.000186354209207 0)
(0.000113872880254 -0.000194608187092 0)
(8.87819006521e-05 -0.000178168277011 0)
(9.71012075106e-05 -0.000178101829915 0)
(8.90858696171e-05 -0.00018612578825 0)
(9.7167650779e-05 -0.000186420657578 0)
(8.91739215773e-05 -0.000194430066552 0)
(0.00012605678625 -0.000190137139747 0)
(8.49595131465e-05 -0.000181757856401 0)
(0.00012575042901 -0.000173660611852 0)
(0.000109995748684 -0.000189843702157 0)
(9.35303372383e-05 -0.000189821860738 0)
(9.33973547593e-05 -0.000173192193273 0)
(0.000142063911043 -0.000190440592458 0)
(0.000141910277232 -0.00017390533766 0)
(0.000105786773131 -0.000177511698869 0)
(0.000121994280068 -0.000186083389471 0)
(0.000122219178743 -0.000194281145108 0)
(0.000121847055917 -0.000177870636668 0)
(0.000114113862414 -0.000185839626661 0)
(0.000105986972055 -0.000194036997233 0)
(0.000114194618262 -0.000194110417438 0)
(0.000105845613066 -0.000185838574356 0)
(8.91622867459e-05 -0.000177593362815 0)
(9.74723031338e-05 -0.000177563730561 0)
(9.75668341834e-05 -0.000185839203571 0)
(0.00013423333632 -0.00019017726252 0)
(0.000126202272231 -0.000198372270299 0)
(0.000134004225956 -0.000173652195075 0)
(0.000109986906768 -0.00019819667693 0)
(9.35269705958e-05 -0.000198200350484 0)
(0.000101720304773 -0.000189861876344 0)
(0.000121904456254 -0.000181897271602 0)
(0.000118129868804 -0.000185831511722 0)
(8.5152299144e-05 -0.000181555041802 0)
(8.50904115138e-05 -0.00018164658899 0)
(8.93357110066e-05 -0.000181526420751 0)
(8.51326929793e-05 -0.00017740031148 0)
(0.000134029694721 -0.00018198093452 0)
(0.000125975717574 -0.000181847182441 0)
(0.000118021887603 -0.000189992053354 0)
(8.50224938304e-05 -0.000198463161672 0)
(8.51698063243e-05 -0.000189926975151 0)
(9.34051887313e-05 -0.000181553021949 0)
(0.000101924862414 -0.000193912894623 0)
(8.50534170644e-05 -0.000173274811288 0)
(0.000142136064386 -0.000182074332658 0)
(0.000118249088358 -0.000194078033999 0)
(0.000105924359304 -0.000181497757875 0)
(9.76413697278e-05 -0.000181511200073 0)
(0.000101755281463 -0.000177341026559 0)
(0.000101655150055 -0.000181704377712 0)
(0.000101828171668 -0.000185647023378 0)
(0.000150395476461 -0.000173728941072 0)
(0.000150548835204 -0.000190289756771 0)
(0.000150388979489 -0.00018207550744 0)
(0.000111626892678 -0.000173826132709 0)
(0.000109563636847 -0.000175922451718 0)
(0.000107467159382 -0.000173859356895 0)
(0.000125950275288 -0.000190281758174 0)
(0.000129824437854 -0.000190434518058 0)
(0.000129475265363 -0.000174017436636 0)
(0.000125516898152 -0.00017390208994 0)
(0.000110030913631 -0.000189966422557 0)
(0.000109696536142 -0.000192561704362 0)
(0.000109663314508 -0.00018840229053 0)
(0.000111759791972 -0.000190465385353 0)
(0.000107600058677 -0.000190498609539 0)
(9.32956219601e-05 -0.000173415047069 0)
(9.49881192288e-05 -0.000173959028176 0)
(9.29250231301e-05 -0.000176055345909 0)
(9.08285456654e-05 -0.000173992251086 0)
(9.35185798504e-05 -0.000189909812693 0)
(0.000133857059901 -0.000194606716031 0)
(0.000121642736101 -0.000173709394576 0)
(0.00012586744088 -0.000186130727699 0)
(0.000125686136205 -0.000177931026454 0)
(0.000125742710307 -0.000182114215053 0)
(0.000122104015255 -0.000190082450278 0)
(0.000114188794966 -0.000189861329307 0)
(0.000118214970577 -0.000190046420848 0)
(0.000110071215042 -0.000185672238291 0)
(0.000117916325072 -0.000180015417178 0)
(0.000115853069241 -0.000182111736186 0)
(0.000120012642804 -0.000182078513276 0)
(0.000117949546706 -0.000184174831009 0)
(8.69013863498e-05 -0.000182084194149 0)
(9.34491624254e-05 -0.00017737861478 0)
(9.33651322836e-05 -0.000181717876045 0)
(9.35390740131e-05 -0.000185655722104 0)
(8.92583289187e-05 -0.000173238031419 0)
(0.000126048477123 -0.000194336820765 0)
(9.75746580276e-05 -0.00017319876423 0)
(0.000103374029087 -0.000182211407468 0)
(0.000101277551623 -0.000180148312645 0)
(0.000101310773257 -0.000184307726477 0)
(9.92142957923e-05 -0.000182244631654 0)
(0.000110160730619 -0.000193939764264 0)
(0.000106005747442 -0.00018978771263 0)
(0.000101787608462 -0.000189928430383 0)
(9.77363672146e-05 -0.000189785071938 0)
(0.000133727604759 -0.000186358678087 0)
(0.000133619892009 -0.000178132830351 0)
(0.000129651701023 -0.000182247527733 0)
(0.000115786625973 -0.000173792908523 0)
(0.000117883103437 -0.000175856003346 0)
(0.000109596858481 -0.000180081865549 0)
(0.000109630080116 -0.000184241279381 0)
(0.000111693335946 -0.000182144960372 0)
(0.000107533602651 -0.000182178184558 0)
(0.000103307585819 -0.000173892579805 0)
(9.91478525239e-05 -0.000173925803991 0)
(0.000101244329989 -0.000175988898813 0)
(0.000120079098831 -0.000190398938257 0)
(0.000115919525267 -0.000190432161167 0)
(0.000117982781098 -0.000188335842158 0)
(0.000118016002732 -0.00019249525599 0)
(0.000103549647725 -0.000190379205748 0)
(9.94568624436e-05 -0.000190314452652 0)
(0.000101439094475 -0.000188333794959 0)
(9.29582447643e-05 -0.000180214759741 0)
(9.30982330344e-05 -0.000184221566009 0)
(9.09993723519e-05 -0.00018216008764 0)
(9.50545624972e-05 -0.00018227785584 0)
(0.000113723370142 -0.000175889227532 0)
(0.000111660114312 -0.000177985546541 0)
(0.000107500381017 -0.000178018770726 0)
(0.000105404063284 -0.000175955674628 0)
(0.000122142354661 -0.000188302619248 0)
(0.000122175576295 -0.00019246203308 0)
(0.000107779999786 -0.000194447589614 0)
(0.000111793013607 -0.000194624799184 0)
(0.00011172655758 -0.000186304374204 0)
(0.000107566824285 -0.00018633759839 0)
(0.000113823047803 -0.000188369066344 0)
(0.000113856269437 -0.000192528480176 0)
(0.000105652425153 -0.000192431068319 0)
(0.000105503740944 -0.00018843551344 0)
(9.70845966935e-05 -0.000176022122999 0)
(9.08617672996e-05 -0.000178151664918 0)
(9.5021340863e-05 -0.000178118442008 0)
(8.8765289835e-05 -0.000176088570095 0)
(9.73087268151e-05 -0.000188323654285 0)
(9.51972406906e-05 -0.000186281445785 0)
(0.000115819847607 -0.000177952322355 0)
(0.00011997942117 -0.000177919099445 0)
(0.000113756591776 -0.000180048641364 0)
(0.000113789813411 -0.000184208055195 0)
(0.000122109120269 -0.000184141608099 0)
(0.000122075898635 -0.000179982194268 0)
(0.000120045864439 -0.000186237927108 0)
(0.000115886290875 -0.000186271150018 0)
(8.88913492934e-05 -0.000180111461804 0)
(0.000105437284918 -0.000180115088459 0)
(0.000105470506552 -0.000184274502291 0)
(0.000103340807453 -0.000178051993636 0)
(9.91810741581e-05 -0.000178085217822 0)
(0.000103407250722 -0.0001863708213 0)
(9.92475174266e-05 -0.000186404045486 0)
(9.71178183277e-05 -0.000180181536831 0)
(9.71510399619e-05 -0.000184340950663 0)
(0.000120112320465 -0.000194558352089 0)
(0.000115952746902 -0.000194591574999 0)
(0.000134145131746 -0.000190233876685 0)
(0.000126096943215 -0.000190104870629 0)
(0.000125916066704 -0.000181898776288 0)
(0.000118076631186 -0.000189966057407 0)
(0.000121996121332 -0.000185993919298 0)
(0.000122178448186 -0.000194201599475 0)
(8.52151068568e-05 -0.00018987869076 0)
(0.000142226500079 -0.000190337059026 0)
(8.50890453174e-05 -0.00019839553852 0)
(8.48883677136e-05 -0.000181830308503 0)
(9.34736829962e-05 -0.000189868638393 0)
(9.33425535082e-05 -0.000173230969033 0)
(0.000133900814717 -0.000173724904887 0)
(0.000121797444174 -0.000177799149065 0)
(0.00012583424428 -0.00017359444823 0)
(0.00010179764759 -0.000189805348933 0)
(0.0001141493244 -0.000185719536995 0)
(0.000106056444138 -0.000193915038506 0)
(0.000114238360782 -0.000193987066796 0)
(0.000105962641321 -0.000185650741613 0)
(0.000109912617252 -0.000189895483545 0)
(0.000129904614491 -0.000194572790408 0)
(9.34631208271e-05 -0.000181506234088 0)
(9.7688334926e-05 -0.000185651335105 0)
(8.50944813881e-05 -0.000173236145246 0)
(8.92934035439e-05 -0.000177389443355 0)
(9.76077071722e-05 -0.00017735658202 0)
(0.000142043168927 -0.000173803638842 0)
(0.000141988637105 -0.000182176147574 0)
(0.000150452880323 -0.000190356017353 0)
(0.000150324388696 -0.000173788613361 0)
(0.000105821087371 -0.000181667909136 0)
(0.000101641224321 -0.000177520848477 0)
(0.000105886581997 -0.000177347964944 0)
(0.0001074837702 -0.000175939063811 0)
(0.00010335741827 -0.000180131700552 0)
(0.000107516991834 -0.000180098477642 0)
(0.000103324196636 -0.000175972286721 0)
(0.000125818389455 -0.000186209393011 0)
(0.000122145231643 -0.000190142823002 0)
(0.000121920172721 -0.000181985004121 0)
(0.000118153559098 -0.000185917583133 0)
(0.000120029253622 -0.000184158220192 0)
(0.000120062488014 -0.000188319231341 0)
(0.000126034822349 -0.000194407216265 0)
(0.000129726555997 -0.000186339517435 0)
(0.000118258051183 -0.00019418019723 0)
(0.000120095709648 -0.000192478645173 0)
(0.000121660478049 -0.000173790721241 0)
(0.000125654150558 -0.000178006360621 0)
(0.000119996031987 -0.000179998806361 0)
(0.000129574948664 -0.000178137981575 0)
(0.000114137512903 -0.000190000714358 0)
(0.000109983041074 -0.000185832684449 0)
(0.000111743181155 -0.000188385678437 0)
(0.000115869680058 -0.000184191443102 0)
(0.000111709946763 -0.000184224667288 0)
(0.00011590291445 -0.000188352454251 0)
(0.000110100069295 -0.000194064847457 0)
(0.000105908973478 -0.000189951422315 0)
(0.00010186469968 -0.000194020402224 0)
(0.000107692965131 -0.000192470679998 0)
(0.000111776402789 -0.000192545092269 0)
(0.000115936136085 -0.000192511868083 0)
(0.000101708108511 -0.000185834880361 0)
(0.00010758344786 -0.000188418902623 0)
(0.000103390639905 -0.000184291114384 0)
(0.000107550213468 -0.000184257891474 0)
(0.000103486439128 -0.000188365365193 0)
(9.33080845928e-05 -0.000177595393152 0)
(8.91217108162e-05 -0.000173453176751 0)
(8.92358511082e-05 -0.000181683765407 0)
(9.08451564825e-05 -0.000176071958002 0)
(9.09380805346e-05 -0.000180146231776 0)
(9.7462319661e-05 -0.000173373780162 0)
(9.75077227383e-05 -0.00018171833458 0)
(9.50047300459e-05 -0.000176038735092 0)
(9.91976849752e-05 -0.000180164924738 0)
(9.9164463341e-05 -0.000176005510906 0)
(9.50379516801e-05 -0.000180198148924 0)
(9.34450731565e-05 -0.000185806630288 0)
(9.76559501902e-05 -0.000189916702598 0)
(9.92309066094e-05 -0.00018432433857 0)
(9.93698022734e-05 -0.000188334348402 0)
(9.51357763837e-05 -0.000184265993879 0)
(0.000111643503495 -0.000175905839625 0)
(0.000115836458424 -0.000180032029271 0)
(0.00011580323679 -0.000175872615439 0)
(0.000111676725129 -0.000180065253456 0)
(8.66688123703e-05 -0.000174025475272 0)
(8.66854231874e-05 -0.000176105182188 0)
(8.93118242041e-05 -0.000185775746179 0)
(9.77199622868e-05 -0.00019403114277 0)
(8.94081056659e-05 -0.000194070374236 0)
(8.52185219687e-05 -0.000185666269479 0)
(8.52956478674e-05 -0.000194002583429 0)
(0.00010954702603 -0.000173842744802 0)
(0.000126138814067 -0.000192427183484 0)
(0.000126047999195 -0.000188296983198 0)
(0.000124238832126 -0.000190365714071 0)
(9.32956012166e-05 -0.000192352449935 0)
(9.53449792671e-05 -0.000190278605636 0)
(9.32362917659e-05 -0.000188226790269 0)
(9.12020948648e-05 -0.000190281344286 0)
(8.52017271513e-05 -0.000189923525358 0)
(8.94272837011e-05 -0.000189811501903 0)
(8.48903005462e-05 -0.000184052302948 0)
(9.36265319569e-05 -0.000193945628379 0)
(0.000119946199536 -0.000173759685613 0)
(0.00011786649262 -0.00017377629643 0)
(0.000116826479431 -0.000173784603115 0)
(0.000125963867023 -0.000184203470174 0)
(0.0001241723761 -0.000182045289091 0)
(0.000101577510944 -0.000192343808619 0)
(8.7034988395e-05 -0.000190311432524 0)
(8.4935271901e-05 -0.000188222804867 0)
(0.000113706759325 -0.000173809520616 0)
(0.000111857894374 -0.000173507998707 0)
(0.000124236216703 -0.000194498258013 0)
(0.000124205597734 -0.000186204702922 0)
(0.000122042677001 -0.000175822780436 0)
(9.53917847336e-05 -0.000194418741944 0)
(9.12342366508e-05 -0.000194445559 0)
(9.74531492994e-05 -0.000192325632879 0)
(9.11300002405e-05 -0.000186174955765 0)
(8.91055408526e-05 -0.00018820866556 0)
(8.91342450885e-05 -0.000192382492244 0)
(0.000103684058143 -0.000194387653985 0)
(9.95597602883e-05 -0.000194377464831 0)
(0.000115892703165 -0.000173593981314 0)
(8.90203415911e-05 -0.000184121550736 0)
(8.7003076767e-05 -0.000186136034039 0)
(8.93645525019e-05 -0.0001899174326 0)
(8.9386113755e-05 -0.000185656943813 0)
(9.11771075724e-05 -0.000188212886207 0)
(9.10647661621e-05 -0.000184167521064 0)
(9.35642927108e-05 -0.000194053152565 0)
(9.77837860921e-05 -0.000193922008509 0)
(9.53740813104e-05 -0.000192342238593 0)
(9.95175536078e-05 -0.000192333105571 0)
(8.94670415777e-05 -0.00019396926611 0)
(9.12098755273e-05 -0.000192375498501 0)
(0.000111626892678 -0.000173826132709 0)
(0.000115786625973 -0.000173792908523 0)
(0.000124222221309 -0.000188286007155 0)
(0.000124188986917 -0.000184124996007 0)
(0.000124255442943 -0.000192445420987 0)
(0.000119962810353 -0.000175839392529 0)
(0.000103618357628 -0.000192381820429 0)
(9.52738606311e-05 -0.000188274412774 0)
(8.69572472888e-05 -0.00018409809339 0)
(8.70169017187e-05 -0.000188226945139 0)
(8.51556249165e-05 -0.000185751435053 0)
(8.52480850598e-05 -0.000194087626527 0)
(6.84293015885e-05 -0.000198582913726 0)
(6.81700264833e-05 -0.000165301161497 0)
(8.45889457227e-05 -0.000174042087365 0)
(8.4622167357e-05 -0.000178201501197 0)
(6.83108358162e-05 -0.000181930766448 0)
(8.4761959418e-05 -0.000180083741711 0)
(8.49726800613e-05 -0.000173446379979 0)
(8.46055565399e-05 -0.000176121794281 0)
(8.67020340045e-05 -0.000178184889104 0)
(8.50169043045e-05 -0.000177583342065 0)
(8.6822977208e-05 -0.000180107215641 0)
(8.26072712302e-05 -0.000173912550055 0)
(8.26872697714e-05 -0.000177988524485 0)
(8.26543402883e-05 -0.000175945688546 0)
(0.000799342232354 -0.000259397704648 3.46944695195e-17)
(0.000334079497761 -0.000197009055052 0)
(0.000183886177919 -0.000181710519566 0)
(0.000150795992262 -0.000181794305677 0)
(0.000129922997426 -0.000194494370049 0)
(0.000129753692025 -0.000186277001355 0)
(0.00012961191151 -0.000178065802493 0)
(0.000111643503495 -0.000175905839625 0)
(0.000115836458424 -0.000180032029271 0)
(0.00011580323679 -0.000175872615439 0)
(0.000119996031987 -0.000179998806361 0)
(0.000119962810353 -0.000175839392529 0)
(0.000233789161476 -0.000164662041048 0)
(0.00106220307601 -0.000256600781803 4.16333634234e-17)
(0.000795738487691 6.32192501298e-06 5.55111512313e-17)
(0.0010620864813 8.44642870518e-06 2.77555756156e-17)
(0.000400639856066 -0.000196496600162 0)
(0.00026738883562 -0.000197607213899 0)
(0.000234102177894 -0.000197852311156 0)
(0.000267137540464 -0.000164344566962 0)
(0.000200709022994 -0.000198163753196 0)
(0.00018408070917 -0.000198266214159 0)
(0.000200598588203 -0.000181537100478 0)
(0.000200543115872 -0.000181591855788 0)
(0.000183987105355 -0.000198346832734 0)
(0.000400678398411 -0.000196468593637 1.04083408559e-17)
(0.000333568467688 -0.000130486359006 3.46944695195e-18)
(0.000400118040612 -0.00012996952932 3.46944695195e-18)
(0.00013403451726 -0.000194464725787 0)
(0.000167555621337 -0.000198292771952 0)
(0.000151035957746 -0.00019833845545 0)
(0.000183794808869 -0.000165070935216 0)
(0.000200434189092 -0.000164954009092 0)
(0.000167237927789 -0.000165116915973 0)
(0.000150705645392 -0.000165162700258 0)
(0.000129756014015 -0.000182107719119 0)
(0.000133902793721 -0.000186232680151 0)
(0.000133772188305 -0.000178000625585 0)
(0.000133764326736 -0.000182176341743 0)
(0.000167461146959 -0.000181664394338 0)
(0.00011058703922 -0.000173834438117 0)
(0.000109555331439 -0.00017488259826 0)
(0.000108507172572 -0.00017385105021 0)
(0.000127910961136 -0.000190403476027 0)
(0.000123778532303 -0.000173855272511 0)
(0.000125677823255 -0.000175990228719 0)
(0.000118023013363 -0.000181973000789 0)
(0.000129912943527 -0.000190315602146 0)
(0.000133895654264 -0.000190398806027 0)
(0.000133636494427 -0.000173931485675 0)
(0.000129588523331 -0.000173877556578 0)
(0.000137780255548 -0.00018223851386 0)
(0.000137869138834 -0.000190486875856 0)
(0.000117874798029 -0.000174816149888 0)
(0.000118906346078 -0.000173767991022 0)
(0.000101418186771 -0.000173636109378 0)
(0.000125888386396 -0.000180073147412 0)
(0.000127715791439 -0.000182227846808 0)
(8.49911371649e-05 -0.000192377245585 0)
(0.000113945209463 -0.000175583946063 0)
(0.00011194426279 -0.000177601493869 0)
(0.000113739980959 -0.000177968934448 0)
(0.000116020423215 -0.00017766478233 0)
(0.000114049755656 -0.000179653334752 0)
(0.000118050822267 -0.00017977473008 0)
(0.000116099827225 -0.000181766320214 0)
(0.000120017705249 -0.000181912341262 0)
(0.000112666905867 -0.000173817826025 0)
(0.000114746612783 -0.000173801215207 0)
(0.000113715064734 -0.000174849374074 0)
(0.000109846296708 -0.00017553202126 0)
(0.000107747531967 -0.00017346255503 0)
(0.000109712514221 -0.000177822191276 0)
(0.000105506525081 -0.00017370409283 0)
(0.000127985118999 -0.000194548186126 0)
(0.000127794601432 -0.000186315012665 0)
(0.0001217891769 -0.000173804070082 0)
(0.000124139154465 -0.000177885875259 0)
(0.000117929868617 -0.000175691095667 0)
(0.000119764182445 -0.000173730788439 0)
(0.000117899714254 -0.000177935710262 0)
(0.000117908019663 -0.00017897556372 0)
(0.000117891408846 -0.000176895856804 0)
(0.000116859701065 -0.000177944016946 0)
(0.000118939567712 -0.000177927404853 0)
(0.000113957708573 -0.000181888859176 0)
(0.000121981898558 -0.000182053200129 0)
(0.000103632294425 -0.000173426734805 0)
(8.70881958881e-05 -0.000194453115117 0)
(0.000113731675551 -0.00017692908099 0)
(0.000112700127501 -0.000177977239856 0)
(0.000114779834417 -0.000177960629039 0)
(0.00011993693408 -0.000177799632365 0)
(0.000122059287818 -0.000177902487352 0)
(0.000141987772094 -0.000186327846563 0)
(0.000121899146569 -0.000179932488594 0)
(0.000121751722365 -0.000175834688833 0)
(0.000111635198086 -0.000174865986167 0)
(0.000110603650037 -0.000175914145033 0)
(0.000129879748656 -0.000192499539102 0)
(0.000129781381483 -0.000188383775908 0)
(0.000118956178529 -0.000180007111769 0)
(0.000116876311882 -0.000180023723862 0)
(0.000129690629885 -0.000184301497688 0)
(0.000115794931381 -0.000174832761981 0)
(0.000116843090248 -0.00017586431003 0)
(0.000118922956895 -0.000175847697937 0)
(0.000112683516684 -0.00017589753294 0)
(0.0001147632236 -0.000175880922123 0)
(0.000111651808903 -0.000176945693083 0)
(0.000115828153015 -0.000178992175813 0)
(0.000115811542198 -0.000176912468897 0)
(0.000119987726579 -0.000178958952903 0)
(0.000119971115762 -0.000176879245987 0)
(0.000119954504945 -0.000174799539071 0)
(0.000797843592952 -0.000258918341771 2.77555756156e-17)
(0.00106427429514 -0.000257088751579 2.08166817117e-17)
(0.000234062551156 -0.000197890965715 0)
(0.000334112516963 -0.000196992584217 6.93889390391e-18)
(0.000400658896292 -0.000196480473896 0)
(0.000233822411704 -0.000164625034838 0)
(0.000184026719335 -0.000198306580857 0)
(0.000183932206683 -0.000181673411292 0)
(0.00020056366411 -0.000181564535544 0)
(0.00015096610344 -0.000198372559183 0)
(0.000167394391345 -0.000181706460417 0)
(0.000150868804923 -0.000181750593801 0)
(0.000116061441347 -0.000179720333017 0)
(0.000129847900052 -0.000190372031321 0)
(0.000129981134164 -0.000194433203782 0)
(0.000133957666395 -0.000194522846688 0)
(0.000127958617574 -0.000192470155626 0)
(0.000129684044408 -0.000182176982965 0)
(0.000129826032127 -0.000186214124225 0)
(0.000133822895197 -0.000186289227975 0)
(0.000127853688643 -0.000188352847422 0)
(0.000127756745782 -0.000184275410909 0)
(0.000119987842821 -0.000179853506636 0)
(0.000129522278549 -0.000173943579862 0)
(0.000129673044876 -0.000177999820034 0)
(0.000133701420004 -0.000178060295323 0)
(0.000113723370142 -0.000175889227532 0)
(0.000111899832623 -0.000175558749787 0)
(0.000111660114312 -0.000177985546541 0)
(0.000109563636847 -0.000175922451718 0)
(0.000110595344628 -0.000174874291575 0)
(0.000112675211276 -0.000174857679482 0)
(0.000112691822093 -0.000176937386398 0)
(0.000115961042057 -0.000175630144758 0)
(0.000115819847607 -0.000177952322355 0)
(0.000113884366451 -0.000179886281492 0)
(0.000117916325072 -0.000180015417178 0)
(0.000115984198282 -0.000181949349523 0)
(0.000116868006473 -0.000178983870404 0)
(0.000117883103437 -0.000175856003346 0)
(0.000116834784839 -0.000174824456572 0)
(0.000114754918192 -0.000174841068665 0)
(0.000116851395656 -0.000176904163488 0)
(0.000114771529009 -0.000176920775581 0)
(0.000107467159382 -0.000173859356895 0)
(0.000103447832841 -0.000173691782259 0)
(0.00013781623141 -0.000186362762475 0)
(0.00012002199758 -0.00018200974954 0)
(0.000121884095046 -0.000175848008331 0)
(0.000123883769221 -0.000175891141247 0)
(0.00011985853209 -0.000175763549296 0)
(0.00011997942117 -0.000177919099445 0)
(0.000122075898635 -0.000179982194268 0)