/*--------------------------------*- C++ -*----------------------------------*\
| =========                 |                                                 |
| \\      /  F ield         | OpenFOAM: The Open Source CFD Toolbox           |
|  \\    /   O peration     | Version:  2406                                  |
|   \\  /    A nd           | Website:  www.openfoam.com                      |
|    \\/     M anipulation  |                                                 |
\*---------------------------------------------------------------------------*/
FoamFile
{
    version     2.0;
    format      ascii;
    arch        "LSB;label=32;scalar=64";
    class       volVectorField;
    location    "0.01";
    object      U;
}
// * * * * * * * * * * * * * * * * * * * * * * * * * * * * * * * * * * * * * //

dimensions      [0 1 -1 0 0 0 0];

internalField   nonuniform List<vector> 
29767
(
(0.0083728470689 -0.0657103623671 0.80647242338)
(0.0136565980164 -0.130090315874 0.824238684896)
(0.00465348444365 -0.245291852425 0.631218498404)
(0.00672653015947 -0.0918742970625 0.684897910194)
(0.00280141318598 -0.23437932296 0.710208962028)
(0.0125272857062 -0.140015057234 0.781690519366)
(0.00463197439172 -0.0913330962217 0.752324510093)
(0.000490614783691 -0.0824665718181 0.750969170425)
(0.029718309822 -0.244719979197 0.808601363788)
(0.0631133847745 -0.617709667448 0.445298325173)
(-0.00613583509883 -0.499409683861 0.280048444182)
(0.0499046265451 -0.629457558748 0.514679321356)
(0.0788180703321 -0.555145205298 0.6857615136)
(0.069532745019 -0.634406070465 0.552649359486)
(0.0923421774681 -0.554448241625 0.711041503521)
(0.0420899836835 -0.602786070015 0.421636207922)
(-0.0189757136604 -0.482751429023 0.281695500557)
(-0.0133005047043 -0.445074126149 0.232050833325)
(-0.0683588671872 -0.313939990967 0.190519460657)
(-0.0273946427052 -0.429640942244 0.237357752963)
(-0.00959134453852 -0.235051923076 0.589753504279)
(-0.00858184788149 -0.135649970769 0.672208546942)
(-0.0135601302453 -0.15118755929 0.64108461504)
(0.0415033286062 -0.479039389533 0.484912384756)
(0.00428828821651 -0.337266967887 0.494468357764)
(0.0184254064154 -0.357383598758 0.553661908376)
(0.0125103660593 -0.43816925501 0.414074190448)
(0.0629453837829 -0.718122622583 0.216318387011)
(0.077926872411 -0.637635070897 0.456659165994)
(0.0344446516417 -0.593497575612 0.398019581682)
(0.0872226431642 -0.804267727251 0.353664306672)
(0.134352394325 -0.867359523788 0.400958211073)
(0.0502081490349 -0.611241416732 0.405267063745)
(0.0396565620648 -0.673579224736 0.220694279986)
(0.0194568009228 -0.476130723294 0.589088796338)
(0.0152348353768 -0.332858731006 0.623611966658)
(0.0417672558639 -0.446452132924 0.674152473277)
(0.00806123655375 -0.351877984084 0.601809553134)
(-0.0280023187503 -0.197688510108 0.510144124927)
(-0.0271370973811 -0.11858508098 0.598560372103)
(0.050516258869 -0.485816292673 0.601381500637)
(0.0320120098374 -0.34365048855 0.648947738895)
(0.0747494987019 -0.447785490045 0.681521598184)
(0.0350897707129 -0.358907799299 0.618802518164)
(0.0131530311407 -0.45326050889 0.472538828691)
(-0.0165830816415 -0.323128743705 0.487747633877)
(-0.00949957636233 -0.341969828063 0.546380445577)
(-0.0126774782374 -0.416033211691 0.412024584932)
(-0.0518695351033 -0.307287267313 0.315423098973)
(-0.0358067055096 -0.280133048186 0.434468311072)
(-0.0443651661604 -0.25999893793 0.4088745531)
(-0.0311752908485 -0.35527904878 0.334106607976)
(-0.0372562423091 -0.324139393173 0.308336437072)
(-0.0118364601699 -0.294653956833 0.432285833243)
(-0.0266209191428 -0.272568940579 0.406196845601)
(-0.0105536319179 -0.378150321336 0.327838645605)
(0.0831489181106 -0.481606706636 0.823191155521)
(0.0674168357659 -0.424362385421 0.894361103523)
(0.107984990415 -0.472847564954 0.851944355144)
(0.0752494021904 -0.422868613653 0.91810509239)
(0.0434524815332 -0.671522350288 0.172489318537)
(0.022783287061 -0.541583347652 0.309708174319)
(0.00307591489364 -0.51792152309 0.28192084456)
(-0.00709201098291 -0.541032571239 0.178734908742)
(0.0345870222893 -0.560288896098 0.313658349713)
(0.0131065931841 -0.611729829803 0.193132279227)
(0.00633581200612 -0.556151189267 0.163124075927)
(0.0749659179926 -0.765065458967 0.586712347825)
(0.0604304380278 -0.624318339692 0.584417569378)
(0.0473773378189 -0.615044255716 0.504130412788)
(0.0945928901436 -0.772940370029 0.484025468379)
(0.0578192802835 -0.616537415733 0.571225916497)
(0.101669750457 -0.775429578262 0.619641670197)
(0.060936841669 -0.744461718784 0.462857602167)
(0.0526446200094 -0.748527293948 0.546922322389)
(0.0299760938032 -0.600920418509 0.495274933413)
(0.038594566145 -0.603698659803 0.560529523269)
(0.0364519181138 -0.720390204931 0.444407448066)
(0.165628031286 -0.8276056387 0.758522215993)
(0.0848378589966 -0.64545444015 0.570692656821)
(0.0732566314001 -0.634449840754 0.627057772331)
(0.108501842297 -0.835952026168 0.445972986924)
(0.155842037535 -0.872685714212 0.512463603146)
(0.0983148508502 -0.644461642778 0.650814408276)
(0.137813047171 -0.818432182451 0.698795452119)
(0.00610454180344 -0.629143902292 0.279556861519)
(0.0308516420859 -0.584307139345 0.415740601416)
(0.0136420983031 -0.576808822496 0.3791631932)
(0.0532115828024 -0.733332852877 0.332938569598)
(0.0285838394435 -0.657579611571 0.271691730387)
(0.00913811130176 -0.559126446284 0.377526161198)
(0.030823272622 -0.700579082544 0.329405813246)
(-0.0308869342248 -0.550181416699 0.212550153713)
(-0.0359185628519 -0.457282520269 0.287059664036)
(-0.0205552578642 -0.493637441736 0.317642070476)
(-0.0489492110421 -0.491204666335 0.200287154408)
(-0.0105716543035 -0.611050206629 0.280878749178)
(0.0127830179971 -0.566914708774 0.411404478474)
(-0.00558811416123 -0.544533443575 0.374310395402)
(0.0106310555388 -0.678924165576 0.323591399986)
(-0.0173072134542 -0.566594010107 0.206512530353)
(0.00460790161167 -0.523400317651 0.309324139236)
(-0.0245906543267 -0.519946551769 0.189331360198)
(-0.024964610239 -0.468692822158 0.283468479281)
(-0.00195995557799 -0.587270114472 0.19829926978)
(-0.00572095094314 -0.505898182119 0.314944913039)
(-0.0365657047603 -0.503121560286 0.198489191232)
(-0.0473650269484 -0.380062670006 0.107623771426)
(-0.0457684447024 -0.362254575107 0.201178297807)
(-0.0384210096321 -0.373277623267 0.19564739165)
(-0.0582410387572 -0.369959187379 0.115933872733)
(-0.0330982818848 -0.436061980521 0.12840637562)
(-0.0352949805451 -0.413372723199 0.222259249121)
(-0.00449315971483 -0.460786697016 0.227788901238)
(-0.028032320232 -0.474662031346 0.134747020528)
(-0.0169270962574 -0.494427945784 0.126040679412)
(-0.0286505816325 -0.427643140814 0.21785648466)
(-0.0448358354822 -0.425465430233 0.139400693422)
(-0.0666958019752 -0.403024458216 0.155751400815)
(-0.0452732060708 -0.399693978015 0.227545950039)
(-0.0400938585089 -0.462023036765 0.144881547126)
(-0.0357224921591 -0.41706952183 0.242968751736)
(-0.050731312152 -0.449711840079 0.151967869991)
(-0.0570089433814 -0.414025482359 0.151127565908)
(-0.0510655011379 -0.388866161689 0.232642920992)
(-0.0772809131333 -0.351936960574 0.128401306545)
(-0.0744797988324 -0.305579457069 0.195919067839)
(-0.0793910625342 -0.32077667848 0.123095424882)
(-0.0560422422407 -0.350755956243 0.20765132428)
(-0.0678903402019 -0.360467919876 0.123163413466)
(-0.0890459746035 -0.314132639974 0.130292529298)
(-0.0633083354422 -0.34106766799 0.213565100602)
(-0.076357335671 -0.393779505807 0.161013915719)
(-0.0484163943138 -0.406714151382 0.24909245403)
(-0.0621335605652 -0.438196913905 0.157109330629)
(-0.0611542715503 -0.378838737618 0.238943544021)
(-0.0866405110097 -0.342062516331 0.138011232411)
(-0.083674097964 -0.296745397421 0.20197909827)
(-0.0979127255738 -0.305127607417 0.138855884199)
(-0.0740316889366 -0.331519506553 0.219923487686)
(-0.00220030010932 -0.0855120818567 0.668293324573)
(-0.0597446238698 -0.324347198395 0.184510241366)
(-0.070238565458 -0.328943175882 0.116262859315)
(-0.0534134113376 -0.334105481918 0.18173715317)
(-0.0600954584733 -0.335906789366 0.110930318088)
(0.032251497562 -0.159512101312 0.901741313086)
(0.0270136236234 -0.191814302183 0.824950062429)
(0.0416454904463 -0.241594200394 0.943020548303)
(0.0105224752339 -0.230560219259 0.742699652755)
(-0.00113130878852 -0.149387335841 0.743411506292)
(0.004538705295 -0.13162708531 0.753338160843)
(0.0713584348948 -0.710785446311 0.681658226423)
(0.047203783535 -0.547003753664 0.676288207894)
(0.0583584291261 -0.592481427905 0.642731870828)
(0.089968392265 -0.658894078357 0.743057228769)
(0.0909607604862 -0.708144476264 0.730527242274)
(0.0690370676111 -0.600762381775 0.652180413552)
(0.0671070351642 -0.552060177267 0.68095753474)
(0.101459566898 -0.648972719412 0.795345426104)
(0.0720090050614 -0.594513209033 0.645108228554)
(0.0963499780216 -0.655435596022 0.768359513014)
(0.103083030379 -0.703767041776 0.758484199989)
(0.142523234161 -0.695259825589 0.785662410341)
(0.0724041318891 -0.602089932846 0.692836008274)
(0.110213895529 -0.554938518089 0.742224128045)
(0.102726211168 -0.647935145585 0.804925140559)
(0.111953534264 -0.636756236705 0.830960645676)
(0.0813924558059 -0.604177059573 0.719565160552)
(0.124111425512 -0.704732659252 0.772823883688)
(0.0671464088973 -0.70215703606 0.320273962791)
(0.0863476577225 -0.773014245192 0.25618479281)
(0.05758559366 -0.675637471239 0.283045575837)
(0.0530099918634 -0.701449499016 0.211067574854)
(0.0737425163946 -0.713021003589 0.325298263625)
(0.051088793382 -0.665380937447 0.281366505841)
(0.0728858832498 -0.750270317045 0.253276399421)
(0.0758497498659 -0.723141895436 0.36776899947)
(0.0857698246025 -0.728561667366 0.395570903848)
(0.100868554731 -0.818362358598 0.367677807714)
(0.0721267544437 -0.770048013926 0.304616658985)
(0.0827629996381 -0.782572107287 0.307116318687)
(0.0914169363919 -0.735094115762 0.401813030629)
(0.0687533649975 -0.719858064495 0.36246099939)
(0.0854859104671 -0.733698250682 0.372683034328)
(0.111870759636 -0.823773760221 0.328952606262)
(0.109022688527 -0.75644496844 0.421856057435)
(0.119271710693 -0.843198908579 0.382469446384)
(0.0905992162452 -0.744586343685 0.381316452796)
(0.0968441356962 -0.80232811903 0.318223535961)
(0.10281070666 -0.74686183806 0.410378375313)
(0.0999481034058 -0.744593878179 0.468169887734)
(0.126038518212 -0.8489958905 0.462744621479)
(0.127575254784 -0.845485931969 0.531133850928)
(0.107087322693 -0.750209378609 0.473569225084)
(0.135061519155 -0.84807835346 0.552260049191)
(0.118694888172 -0.748815553276 0.53562173067)
(0.121374979805 -0.751825849215 0.527970838287)
(0.158834975964 -0.870990062655 0.612653874493)
(0.117640564408 -0.763416678088 0.504731036197)
(0.144446363134 -0.863708917398 0.489017445711)
(0.116684630714 -0.75785681632 0.488772678708)
(0.150885200405 -0.860685037028 0.585227236975)
(0.1253350473 -0.757671291424 0.547850707192)
(0.131686912179 -0.764619244256 0.564255142994)
(0.0134122447213 -0.0508670075623 0.865304857941)
(0.0165461954601 -0.0861957272581 0.867064934352)
(0.00877717144663 -0.104689600419 0.811046141814)
(0.00033439824533 -0.0625711726398 0.775907775558)
(0.00179482344371 -0.0521879896987 0.785612265493)
(0.0257235631457 -0.307643291069 0.698231605885)
(0.0375811755639 -0.409447796792 0.722487054171)
(0.0337993852674 -0.347722496975 0.772804295921)
(0.0237784316952 -0.290133298993 0.724766817939)
(0.0460624783562 -0.306636693587 0.718475079664)
(0.0563892236394 -0.408478535333 0.740706236809)
(0.0517354972133 -0.345110478375 0.790850524517)
(0.0358569194 -0.294171322364 0.744531154612)
(0.0586122126116 -0.6952320596 0.315476087633)
(0.0461278895541 -0.681919977264 0.220242496918)
(0.0393840674146 -0.662290932182 0.272348878866)
(0.0560551510484 -0.723364148334 0.252019950166)
(0.0432023061408 -0.661024225057 0.27677529371)
(0.0618681053949 -0.731636129109 0.252609941958)
(0.055678256012 -0.694493966741 0.312765667242)
(0.0411631808016 -0.640110479587 0.235924771937)
(0.0374425752862 -0.661373420692 0.172993534857)
(0.0293788946002 -0.631001783637 0.163308864724)
(0.0376912223152 -0.635856619898 0.231519859697)
(0.0250980697996 -0.62346001039 0.163815512075)
(0.0257393880405 -0.616430952757 0.211450812734)
(0.0715475744799 -0.337652498411 0.923260737007)
(0.0380141509509 -0.310030411923 0.906880801893)
(0.0624295239625 -0.341829690378 0.913777760014)
(0.0278741081504 -0.312738476803 0.904330457431)
(0.156470763609 -0.84028797312 0.694322581506)
(0.163013933239 -0.82449305475 0.743200770566)
(0.149361810959 -0.832532493973 0.680915434604)
(0.136636114365 -0.761808622992 0.621889422498)
(0.135004709401 -0.726045718013 0.659042674314)
(0.138639724526 -0.764076939373 0.629493453816)
(0.135729072464 -0.732922610633 0.646619280665)
(0.152861802353 -0.823687531619 0.728518686118)
(0.132098680398 -0.825257468614 0.632954340472)
(0.137760165237 -0.828642386906 0.659515750229)
(0.127023571524 -0.761416257102 0.609586763059)
(0.125831343718 -0.732388117109 0.630724175205)
(0.1255651526 -0.758231882868 0.601205005583)
(0.126258259585 -0.733452676975 0.637834080654)
(-0.0770652727114 -0.269968629987 0.171773351689)
(-0.0687559334855 -0.279049028346 0.164307900064)
(-0.0503495359619 -0.25198067003 0.254798098442)
(-0.044407512534 -0.213756181486 0.374792025108)
(-0.08179223462 -0.288117102937 0.0969482219994)
(-0.0623527751293 -0.287051917342 0.160437719029)
(-0.0711208835197 -0.295246329043 0.092154180641)
(-0.064323663429 -0.235527422846 0.268859211736)
(-0.061135873332 -0.203533558421 0.381752951617)
(-0.0841183326083 -0.263405995956 0.178952610404)
(-0.0893672939428 -0.279610206154 0.105533147821)
(-0.0983159849239 -0.27373957256 0.112994402684)
(-0.0943648112922 -0.253611865025 0.184200877593)
(-0.106988446432 -0.263082806831 0.124081993802)
(-0.0811207825244 -0.254468941804 0.0860829802228)
(-0.0808883813236 -0.255246774471 0.160314460707)
(-0.089941619027 -0.247618861087 0.087975648241)
(-0.0741733746367 -0.262790606551 0.156209278246)
(-0.110228303574 -0.240568810281 0.105636600298)
(-0.0878986304108 -0.246574756351 0.16812189182)
(-0.096703899125 -0.240130916707 0.177347488282)
(-0.0978528829365 -0.242396321674 0.097292391714)
(-0.118918686603 -0.231399083341 0.122818667195)
(-0.107015373994 -0.23225304039 0.17929806378)
(0.00138069225662 -0.00744622749409 0.797491186248)
(0.00635176864441 -0.00809062974409 0.777778762822)
(9.67588005014e-05 -0.00113730559949 0.799669456402)
(0.000187737828142 -0.000781078216993 0.798526131927)
(0.000324942552702 -0.00328895426972 0.798432298353)
(0.000683654554141 -0.00220322706846 0.792774717624)
(0.00328661494577 -0.0141511215256 0.787984305721)
(0.0201036281019 -0.037845968093 0.815927846308)
(0.120508950716 -0.179319551412 0.899828460168)
(0.0813746884748 -0.306630590661 0.718597894592)
(0.000205791182027 -0.000898230204103 0.801342460109)
(0.00112066904668 -0.00294079751478 0.800523756536)
(0.105404896388 -0.384432714948 0.315982231434)
(0.092125142138 -0.125724384562 0.877034455715)
(0.0932022908131 -0.26579611716 0.841805565038)
(0.0851431138199 -0.175462912623 0.807375688818)
(0.0891715962933 -0.264686792985 0.697154835568)
(0.0171936189926 -0.0382272128408 0.737412933359)
(0.0257531154081 -0.0376193041371 0.743298782751)
(0.118174774672 -0.252925289168 0.875719897142)
(0.168688396045 -0.445445766358 0.41641456762)
(0.0116898205484 -0.191220608326 0.293794926326)
(0.0904028203733 -0.351983462676 0.282067464108)
(0.101387510259 -0.273584856835 0.806139964572)
(0.0128639680533 -0.256732771758 0.356309408662)
(0.132443645533 -0.424531695828 0.381849560867)
(-0.00949663297593 -0.246253752871 0.350645337619)
(0.00286826047486 -0.0087797185834 0.797805199882)
(0.00352145723357 -0.00664837531438 0.804919640627)
(0.0135655145934 -0.0228580340864 0.815698508293)
(0.108467973048 -0.295033194799 0.446585083636)
(0.0401005350941 -0.0712455740865 0.631839090896)
(0.0464390365228 -0.0695864734186 0.646427200898)
(0.0174617975966 -0.057243410985 0.810931950194)
(0.0594316091669 -0.115208652122 0.810977965662)
(0.0621617797797 -0.225927723735 0.758405651178)
(0.00909164921922 -0.034357670462 0.773088295289)
(0.0134762686886 -0.0265833661818 0.786979239405)
(0.0106927614187 -0.0296677580573 0.785294937866)
(0.0171877972496 -0.0323615198372 0.779421855843)
(0.0986693290264 -0.320172255472 0.760694835947)
(0.0887032869651 -0.398885960332 0.612389203838)
(0.122503988964 -0.417641725458 0.674147950107)
(-0.0115254312665 -0.176698075292 0.298827284872)
(0.0606072098949 -0.397524321099 0.576288818467)
(0.176195262922 -0.487717075373 0.460170396055)
(0.170203002325 -0.475889467817 0.433378713325)
(0.0267937395571 -0.167756702667 0.227429791202)
(0.0509423114019 -0.219779900635 0.203599100179)
(0.103360686213 -0.20661830453 0.873498402873)
(0.0490983217623 -0.12578234863 0.858856195887)
(0.0486007826548 -0.107577120001 0.866967305134)
(0.0988383769761 -0.219859051892 0.769861202438)
(0.121336529945 -0.332531152265 0.518423403553)
(0.0682909811806 -0.0922382323331 0.697932821849)
(0.0563465480428 -0.0919756758892 0.744233738834)
(0.0590707268488 -0.09587467292 0.730368891613)
(0.0600594076982 -0.0902883764423 0.711372580141)
(0.00803669431063 -0.138194694403 0.412535635049)
(0.066122250335 -0.21140581359 0.428109150921)
(0.0227703643118 -0.0619929289828 0.628443851872)
(0.0114372526625 -0.0535442117943 0.626524281282)
(0.0883544810748 -0.220303192273 0.773178699872)
(0.0237996188852 -0.217456117959 0.486935019492)
(0.091684137574 -0.284046611774 0.544787924463)
(0.0500546582569 -0.0904231031756 0.68177539085)
(0.0292735820823 -0.0962370345779 0.702094045614)
(0.0416498414055 -0.0925881897673 0.714183747485)
(0.0305000802764 -0.0895473110807 0.676416372953)
(0.187385010103 -0.509495378551 0.541634588796)
(0.181466969145 -0.361672365822 0.826437805673)
(0.187165866464 -0.499946625301 0.504790406781)
(0.173816405012 -0.434763831241 0.722228549349)
(0.178906552599 -0.410882369351 0.807662697547)
(-0.036520175709 -0.0568635846052 0.28167297016)
(0.0416394571918 -0.250108784763 0.277264838028)
(-0.0228765826901 -0.0957701694047 0.26578294851)
(0.0104823328575 -0.154152032621 0.239665069922)
(0.0588764835466 -0.268527736052 0.281334229379)
(-0.0102791916499 -0.107856481389 0.259915021211)
(0.0925424903562 -0.390485855482 0.495994095323)
(0.0505969505842 -0.323431581858 0.337357851498)
(0.123178199691 -0.443822904567 0.537135321016)
(0.173259117936 -0.439624000792 0.659937933085)
(0.0758326569714 -0.343405450229 0.348287347691)
(0.154030359286 -0.448233667223 0.580608623007)
(0.0623141463974 -0.380323058425 0.470466019499)
(0.168079146392 -0.54694639832 0.540736139862)
(0.119181075965 -0.459226555143 0.344294325672)
(0.200232428986 -0.415631946553 0.6087349783)
(0.381577931456 -0.808830072787 0.852995766372)
(0.145914723873 -0.52182122701 0.0361134612637)
(0.170137909554 -0.452242990384 0.442951505436)
(0.180466432458 -0.489814055442 0.516540684127)
(0.152109604995 -0.419133545673 -0.0627950306386)
(0.195370448309 -0.475344272253 0.585226813676)
(0.387991770701 -0.97125012501 0.510517903557)
(0.0954465609237 -0.310005085087 0.782804057807)
(0.161344706822 -0.385192417183 0.749695038011)
(0.156815637291 -0.401979860804 0.727234276632)
(0.148396148566 -0.374017764574 0.500788718384)
(0.0719884504123 -0.212471687565 0.34488104237)
(0.0818540128841 -0.143468386416 0.557855735678)
(0.0959965868215 -0.172263680271 0.579201217192)
(0.0850416785203 -0.155885981786 0.554139164409)
(0.0935822623024 -0.165379057216 0.583943387224)
(0.223169214 -0.673089473082 0.877843390488)
(0.290632292092 -0.847908102349 0.752722240041)
(0.217271680418 -0.628756529122 0.911431071418)
(0.239486426905 -0.818917363301 0.582400510996)
(0.228845332112 -0.702532870396 0.863234597516)
(0.159131815674 -0.733679701297 0.384401559336)
(0.21248700631 -0.71054649382 0.767089456475)
(0.228899293383 -0.830056178645 0.540646660892)
(-0.0493409833552 -0.0493029547494 0.29514261537)
(0.152893266326 -0.723098561467 0.361724735299)
(0.215117047231 -0.71758910656 0.75191178987)
(0.169812022094 -0.529078235213 0.523242970305)
(0.115967817543 -0.398217950886 0.321874282852)
(0.121568317364 -0.445337797916 0.341311956298)
(0.00864356690312 -0.0438108398633 -0.0122631464865)
(0.179266884159 -0.337714544416 0.528059984569)
(0.170314902895 -0.113736338848 0.178050352097)
(0.154480853612 -0.168643417087 0.308573060426)
(0.0293933636183 -0.129642547127 -0.0375260197557)
(0.0281565994806 -0.1472137266 -0.020559861308)
(0.0422616240711 -0.210783505359 0.00258376252828)
(0.165670509569 -0.374210514146 0.606775396672)
(0.152500466105 -0.310320194702 0.737722255427)
(0.0866859831723 -0.16972910358 0.716429710547)
(0.109557308153 -0.187569723606 0.67507782242)
(0.104252104426 -0.190958624283 0.686822572929)
(0.091031741553 -0.19393849974 0.709335033168)
(0.154818694029 -0.359603857221 0.567996992902)
(0.138492491976 -0.337771905533 0.695133483416)
(0.148437871602 -0.311357475341 0.720959404667)
(0.0648182043316 -0.173940914499 0.700246844512)
(0.0516498966786 -0.168097364755 0.656836082785)
(0.0639237922405 -0.183151900068 0.674930433142)
(0.0504255018797 -0.173994184151 0.672579520755)
(0.344758129111 -0.613423220549 1.07564426179)
(0.191694445815 -0.534164816121 0.614799693545)
(0.213062767901 -0.489835461625 0.722847387422)
(0.240614278469 -0.54727966963 0.846638448725)
(0.229736234833 -0.479183172477 0.76858856094)
(0.367854740221 -0.640889625924 0.988207381504)
(0.355266060105 -0.53464263716 1.17156189512)
(0.191227846991 -0.214387154003 0.487486429942)
(0.330261867484 -0.53724184657 0.997688687871)
(0.317721805239 -0.631989053175 0.88656361936)
(0.116559648362 -0.384488370576 -0.0171082895649)
(0.385214650241 -0.88400002471 0.584813197463)
(0.37366297246 -0.803115738407 0.869942739941)
(0.177551362913 -0.469291237206 0.46025069964)
(0.205894933209 -0.470818216642 0.635293888441)
(0.127908407395 -0.395430715253 -0.0285366124483)
(0.207033609456 -0.468900678194 0.60285000276)
(0.364734535059 -0.684343865763 0.938279672347)
(0.315293771259 -0.668493537211 0.910750787729)
(0.309830087144 -0.573360436568 0.985934491327)
(-0.0247530164437 -0.156154242738 0.0689543432185)
(0.0387463287845 -0.322232967065 0.0502701263056)
(-0.00509226849942 -0.176184266596 0.0646212247256)
(0.00792671145852 -0.286056912704 0.0784277442026)
(0.0168339195359 -0.18506322595 0.0353194734475)
(-0.00688747783957 -0.161526837927 0.0618018026234)
(0.0264283774078 -0.207864252809 0.0298332619203)
(0.113307324114 -0.377341611024 -0.0203213796047)
(0.0456747986495 -0.220034079304 0.00264713056272)
(0.0776618313105 -0.36436146497 0.0107849621405)
(0.0199659706151 -0.188541799779 0.031283744898)
(0.0407638091869 -0.209989585414 0.00323434587752)
(0.023389659828 -0.204844898796 0.0357261467545)
(0.042511334642 -0.32777803943 0.0477299776514)
(-0.00150805815031 -0.180352119172 0.0607612749777)
(0.0758282771235 -0.360803321907 0.0099769372046)
(0.0998407709713 -0.545846159562 0.133998346255)
(0.29777599141 -0.86894131054 0.665785004656)
(0.223125197439 -0.80829355473 0.465754253107)
(0.163538224267 -0.658660810935 0.123088652892)
(0.07797330654 -0.494239631936 0.114969075278)
(-0.00744608670226 -0.276115430306 0.0888074474491)
(0.0118059775624 -0.302204777934 0.0811030249817)
(0.0267489625008 -0.422687528843 0.103430290396)
(0.0859697571206 -0.504830039268 0.113527164724)
(0.0482296191196 -0.348235466897 0.0543967949116)
(0.0148418040697 -0.307558733675 0.0830709705367)
(0.141644052709 -0.601471893815 0.0893681117859)
(0.0904912635285 -0.533194222916 0.133810246702)
(0.141390062572 -0.702336707951 0.315184497005)
(0.211955143399 -0.799266663449 0.427028975108)
(0.0477623464894 -0.473031829397 0.136783423535)
(0.242553495213 -0.838995907724 0.189083223389)
(0.290490888718 -0.865646950868 0.687388227925)
(0.310655200992 -0.795954450044 0.919943484272)
(0.172194020893 -0.67641205131 0.121999686461)
(0.224261134321 -0.805622750153 0.149267036045)
(0.120352764959 -0.389706474218 -0.0166672594327)
(0.389213084385 -0.883511401563 0.530545006)
(0.0853998684329 -0.391656497942 0.0127963902895)
(0.242275395055 -0.85354652445 0.196572108085)
(0.315758252558 -0.670652289129 1.01338192527)
(0.395907012622 -0.87667700173 0.619852779977)
(0.327098985215 -0.73430808112 0.947777727259)
(-0.0172381031935 -0.271160225941 0.0975066037042)
(0.0174336957794 -0.408481069733 0.108957828187)
(0.134094862994 -0.690536403403 0.298815763507)
(0.0439294499568 -0.471127343917 0.13217726708)
(0.0620893072021 -0.287280668666 -0.0140109846521)
(0.128411882841 -0.479014635423 0.0190897924927)
(0.14808749151 -0.42058912616 0.383250222924)
(0.0802903126124 -0.310705789366 0.284171978919)
(0.0928493384108 -0.326217472581 0.275724303694)
(0.136314356358 -0.411076410216 -0.075838797678)
(0.0531140058951 -0.270816492167 0.0312700043614)
(0.102115679616 -0.195052553836 0.891955162334)
(0.0677836540411 -0.0483473313482 0.904523472305)
(0.041582384357 -0.0727713337496 0.907724356592)
(0.0824388546186 -0.24280772346 0.716759357901)
(0.0661454629064 -0.26591289583 0.635663086838)
(0.0706419886138 -0.27217828301 0.662162876949)
(0.0526343485438 -0.178282149188 0.669592152697)
(0.034487382531 -0.149213348076 0.695119700245)
(0.0449259527583 -0.15986048234 0.692178994193)
(0.0428478209276 -0.178083127557 0.685331126521)
(0.319840437728 -0.567453175159 1.1122475456)
(0.192812494966 -0.53453156518 0.631141917576)
(0.253665913099 -0.566579213887 0.871615830141)
(0.215674124433 -0.446510037013 0.809677587064)
(0.138872357234 -0.235664091751 0.880993972559)
(0.157463706879 -0.373518818475 0.812758279065)
(0.164692261988 -0.344089224586 0.849004429134)
(0.0315143740169 -0.248714468838 0.0841784590342)
(0.125360896441 -0.472231989892 0.0201341757181)
(0.0526321656055 -0.293629429316 0.272482753201)
(0.0833007786131 -0.323394179101 0.283264379522)
(0.0497906471951 -0.266255910198 0.0360254965861)
(0.0534409256049 -0.266667656948 0.280239099126)
(0.0852598130966 -0.411113601844 0.0633643661783)
(0.0762974543137 -0.461804927879 0.186189981074)
(0.0500728274498 -0.305161602164 0.370558341793)
(0.023186509029 -0.277367168663 0.346104508862)
(0.00179048108055 -0.281849708465 0.165018222465)
(0.0511126725703 -0.328704958737 0.362964605223)
(0.0228607021532 -0.318101405045 0.149341565213)
(0.039569359484 -0.409993338387 0.200634946998)
(0.225204460173 -0.767943527354 0.229467458528)
(0.142716548621 -0.512516353116 0.0347750829902)
(0.153084550839 -0.47076309196 0.449425162237)
(0.112946781261 -0.388213504341 0.374663347336)
(0.139572681952 -0.448604579979 0.434686307105)
(0.410152996206 -0.990299558676 0.497573098192)
(0.0970141997621 -0.441149862015 0.0741612341909)
(0.0268912150803 -0.28872299718 0.36644038835)
(-0.0104048800935 -0.272542982055 0.207689809678)
(0.0295988319241 -0.39331063329 0.205193720678)
(0.142740560867 -0.348081770348 0.475885159831)
(0.0509305487479 -0.155069602328 0.402012336422)
(0.0648805935134 -0.198766348095 0.337819512348)
(0.0579292303853 -0.13095735847 0.548444035276)
(0.0548175073174 -0.118956026821 0.574962057981)
(0.0668566131165 -0.154115610637 0.571272976947)
(0.060568808817 -0.106651566778 0.551679648725)
(0.0648387597232 -0.186613671015 0.799464854178)
(0.0272008948515 -0.125929282575 0.793610186801)
(0.0258325097205 -0.0889961440223 0.771465879728)
(0.0388025311085 -0.103753862253 0.803104795044)
(0.028033237607 -0.0861771912087 0.769628744989)
(0.023726287663 -0.0844720740548 0.77548051672)
(0.0170548696189 -0.0834113660141 0.769031081134)
(0.174091755854 -0.54813778261 0.787210452331)
(0.0996284060972 -0.403229898456 0.673119787941)
(0.0943064537215 -0.413633925512 0.618066011648)
(0.147631983535 -0.63040853362 0.490944661042)
(0.159872224686 -0.590685285687 0.715827579442)
(0.0983308231708 -0.403867085644 0.684584307258)
(0.195272057599 -0.668103680802 0.550719994157)
(0.16587935225 -0.541815569858 0.9061666681)
(0.198422734257 -0.667152454283 0.823871021022)
(0.067251659104 -0.409554497514 0.627754922794)
(0.133124629861 -0.620143504634 0.457745726707)
(0.154244965444 -0.60393373683 0.679390795999)
(0.105924127289 -0.400090228766 0.27716864944)
(0.0969919266698 -0.347093041711 0.271679060502)
(0.106137159547 -0.387176012268 0.279256929535)
(0.00163163537958 -0.0637036758602 -0.0136300440062)
(0.0304814791163 -0.14063673306 -0.0196181342483)
(0.110368977029 -0.372164663985 -0.0195219787644)
(0.0465379384295 -0.219668750497 0.00279715909944)
(0.0624485286506 -0.278708673701 -0.0139039109532)
(0.160488483211 -0.444502210189 0.39517484171)
(0.115147760892 -0.382831001312 0.310506176423)
(0.107517934743 -0.366902659876 0.278743869468)
(0.00737719912489 -0.074832194008 -0.0134744060725)
(0.122629032805 -0.384054628986 -0.046851901531)
(0.0460690607569 -0.272731325992 -0.00340938689379)
(0.043418537227 -0.221786255361 0.226719615919)
(0.0385749867395 -0.186023936439 0.219868745663)
(0.0565610068294 -0.251464487875 0.222859535892)
(0.0443662658412 -0.250153527158 0.0319478275655)
(0.0485551275769 -0.239625825534 -0.0192908679239)
(0.0933968575991 -0.332943242873 0.264977803976)
(0.0519540870922 -0.205999338838 0.221721685407)
(0.0784851522422 -0.290869461408 0.236362478633)
(0.00856592443291 -0.0841392729588 -0.0110322794011)
(0.0288043027945 -0.11742313561 -0.0290921982727)
(-0.0115521145017 -0.0823330039007 0.404140699732)
(0.0196396927894 -0.156519626589 0.417761537483)
(0.00015717296439 -0.101852740178 0.403665543205)
(0.00151274066968 -0.0621259814575 0.5302494017)
(0.00338146936653 -0.0892992853216 0.53722110907)
(0.0102200252191 -0.0989824540294 0.54070609741)
(-0.000921324276662 -0.0565259613851 0.527020936555)
(0.0383221333895 -0.145831304847 0.401722437001)
(0.0474267679291 -0.179767521684 0.425071021003)
(0.0186492541927 -0.120566954025 0.407532922883)
(0.0256122881552 -0.0765560751729 0.532036425784)
(0.0333610390734 -0.111154489739 0.556532454372)
(0.0225542945394 -0.0845326257612 0.532784086044)
(0.0292593130636 -0.110500276701 0.544639665419)
(0.0600881189125 -0.269483697842 0.538710445357)
(0.0362956911695 -0.242677424052 0.499388054701)
(0.0726295889134 -0.28159263946 0.564959719141)