/*--------------------------------*- C++ -*----------------------------------*\
| =========                 |                                                 |
| \\      /  F ield         | OpenFOAM: The Open Source CFD Toolbox           |
|  \\    /   O peration     | Version:  2406                                  |
|   \\  /    A nd           | Website:  www.openfoam.com                      |
|    \\/     M anipulation  |                                                 |
\*---------------------------------------------------------------------------*/
FoamFile
{
    version     2.0;
    format      ascii;
    arch        "LSB;label=32;scalar=64";
    class       volVectorField;
    location    "0.01";
    object      U_0;
}
// * * * * * * * * * * * * * * * * * * * * * * * * * * * * * * * * * * * * * //

dimensions      [0 1 -1 0 0 0 0];

internalField   nonuniform List<vector> 
29767
(
(0.00838012187884 -0.0654971240992 0.806534596636)
(0.0137461878976 -0.129647681659 0.824523131607)
(0.00468132310275 -0.245428248629 0.631334141097)
(0.00666937193562 -0.0917677300193 0.685086643006)
(0.00293164583842 -0.234384152775 0.710200784579)
(0.0125619647452 -0.13977927368 0.781904359313)
(0.00461221682296 -0.0912221027711 0.752468688891)
(0.000481809351794 -0.0824010717735 0.751107189511)
(0.029838899069 -0.24411151868 0.809100157485)
(0.0632396055518 -0.61804738845 0.445740679401)
(-0.00598902716467 -0.499672511816 0.280322048595)
(0.0500589324661 -0.629734402583 0.51515823041)
(0.0791313242896 -0.55506953247 0.686340284872)
(0.0697008143599 -0.634702939689 0.553191340803)
(0.0926460080222 -0.554410047039 0.711581590621)
(0.0422395538163 -0.603118526507 0.422021019942)
(-0.0188288194815 -0.482983863863 0.281984445333)
(-0.0131574420134 -0.445319294871 0.232240166169)
(-0.0682517475433 -0.31409296027 0.190652820076)
(-0.0272574106137 -0.429861302261 0.237569419301)
(-0.00955315259218 -0.235036757296 0.589966802617)
(-0.0086050637997 -0.135638275616 0.672474054894)
(-0.0135514380461 -0.151085114716 0.641397125056)
(0.0415180936827 -0.479224336827 0.485237881435)
(0.0043494634942 -0.337385944182 0.494808517413)
(0.0185641798149 -0.357396340871 0.553936014455)
(0.0127028791975 -0.438337566048 0.414449677786)
(0.0630998885177 -0.718727828723 0.21659267716)
(0.0780441344034 -0.638004910621 0.45711467367)
(0.0346352815729 -0.593820720138 0.398418758131)
(0.0874121883277 -0.804899054267 0.354124768181)
(0.13456927654 -0.868063119639 0.401500330646)
(0.0503886382328 -0.611605460183 0.40566755234)
(0.0398229455889 -0.674121292838 0.220984922032)
(0.0195850811228 -0.476307747122 0.589412410818)
(0.0154107736077 -0.332875175316 0.623950898648)
(0.0420647967961 -0.446391554414 0.674528854644)
(0.00806009060656 -0.351860371652 0.601974510816)
(-0.0279322947225 -0.197763968696 0.510395975063)
(-0.027133770778 -0.118550729299 0.59875530827)
(0.0505735195688 -0.485947116503 0.601741339123)
(0.0321232563065 -0.343694668405 0.649290212445)
(0.0751128695297 -0.447798830192 0.681915016533)
(0.0350491422059 -0.358967841527 0.619057227914)
(0.0131945226609 -0.453374999028 0.472867199498)
(-0.0165193755614 -0.323213279002 0.488103909667)
(-0.00938949476107 -0.341948098098 0.546695021094)
(-0.0125118201356 -0.416186356872 0.412418925973)
(-0.0517873263821 -0.307387460969 0.315636666637)
(-0.0357252216282 -0.280179393931 0.434758022722)
(-0.0442852028858 -0.260062228298 0.409107903183)
(-0.0310564394096 -0.355435963769 0.334347766388)
(-0.0371674880349 -0.32427478975 0.308507127022)
(-0.0117638536463 -0.29474982153 0.43252584855)
(-0.026525761311 -0.272662101329 0.406389484929)
(-0.0104290956197 -0.378354413046 0.328044138098)
(0.0833932713122 -0.481216906283 0.824559072331)
(0.0677511940965 -0.423839209895 0.895926190032)
(0.108200907352 -0.47257945846 0.853153506853)
(0.0756216268541 -0.422362601901 0.919334250194)
(0.0435956177955 -0.672072599187 0.172704003833)
(0.0229788794243 -0.541906283118 0.310019300601)
(0.00322502658277 -0.518218532291 0.282181584679)
(-0.00697081594615 -0.541405314801 0.178941230947)
(0.0347869786164 -0.560627604483 0.313967945662)
(0.0132523624934 -0.612179468004 0.193370748393)
(0.00645867022394 -0.556554663599 0.163295335012)
(0.0751137760807 -0.765493780195 0.587420650277)
(0.0605815916158 -0.624554649414 0.58500570798)
(0.0475554897955 -0.615295414504 0.504604457615)
(0.0948688639083 -0.773477089074 0.48460386919)
(0.0579916950008 -0.616781071189 0.571796327656)
(0.101815102638 -0.77586178045 0.620445679769)
(0.0611558120226 -0.744967548436 0.463394551837)
(0.0528111975659 -0.748971279838 0.547507104582)
(0.0301561854497 -0.60116322522 0.495710270012)
(0.0387888678387 -0.603920924095 0.561075404926)
(0.0366588430443 -0.720879818265 0.444893960263)
(0.165701981497 -0.828003022851 0.759645323754)
(0.0849975108608 -0.645757634623 0.571250002511)
(0.0733060844518 -0.634685399695 0.62770255858)
(0.108710961893 -0.836588304575 0.44658300175)
(0.156065935422 -0.87337642657 0.513179051236)
(0.0984025255843 -0.644778216631 0.651522809496)
(0.13799313522 -0.818833979328 0.699806955821)
(0.00626627027577 -0.629581400848 0.279866962714)
(0.0310074443623 -0.584620422895 0.416135574669)
(0.0138174611577 -0.577106469292 0.379544801929)
(0.0533701461431 -0.733868692206 0.333351783361)
(0.0287644023578 -0.658061673406 0.272005881983)
(0.00931945234416 -0.559401108577 0.377904559637)
(0.0309889592886 -0.701092579995 0.329788556137)
(-0.0307555778245 -0.550566269508 0.212771907974)
(-0.0357608990083 -0.457483117218 0.287335324385)
(-0.0203979201218 -0.493906583373 0.317965958873)
(-0.04884605936 -0.49149036732 0.200477652623)
(-0.0104152983927 -0.611463512584 0.281149487183)
(0.0129373516942 -0.567206852963 0.411779654397)
(-0.00541498732058 -0.544789347253 0.374664469285)
(0.0107907223048 -0.67941952671 0.323922873993)
(-0.0171710553312 -0.566988755904 0.206744589222)
(0.00479573061066 -0.523716263814 0.309670122404)
(-0.0244755835486 -0.520277200854 0.189548313555)
(-0.0248084121339 -0.46890530158 0.283757358622)
(-0.001814542944 -0.587690475421 0.198556520091)
(-0.0055424147268 -0.506194128629 0.315293867324)
(-0.0364530382587 -0.503423457883 0.198711541437)
(-0.0472755555928 -0.380316324084 0.107682112044)
(-0.045656105894 -0.362450002958 0.201295830579)
(-0.0383126780761 -0.373489960917 0.195749964814)
(-0.0581443969446 -0.370193446876 0.116013576704)
(-0.033005797901 -0.436355855969 0.128500320914)
(-0.0351870764447 -0.41359596875 0.222420132816)
(-0.0043547131557 -0.461052823906 0.227964977443)
(-0.0279221945153 -0.474979585261 0.134883673463)
(-0.0168215234261 -0.494779073615 0.126155900762)
(-0.0285471374601 -0.427892563639 0.218000738568)
(-0.0447395059189 -0.425738279364 0.139522111793)
(-0.0666123349307 -0.403248226373 0.155915034592)
(-0.0451642498155 -0.399890151929 0.227741075849)
(-0.0399816349288 -0.462320418311 0.145038585333)
(-0.0355903732615 -0.417273733193 0.243186441178)
(-0.0506308144641 -0.44999145701 0.152127896779)
(-0.0569160318108 -0.414272173515 0.151283809353)
(-0.0509554613332 -0.389043704225 0.232854866953)
(-0.0771991556622 -0.352132834214 0.128521106307)
(-0.0743789300294 -0.305715582435 0.19607404656)
(-0.0793105663261 -0.320960278351 0.123197873137)
(-0.0559346720369 -0.350930116406 0.207810823808)
(-0.0677959859311 -0.360682593046 0.123271589457)
(-0.0889733359526 -0.314295374436 0.130407320283)
(-0.063209784564 -0.341224429397 0.21374539112)
(-0.0762802885739 -0.393987982736 0.161159465142)
(-0.0482883277168 -0.406900676894 0.249295898976)
(-0.0620423758862 -0.43846150222 0.15724603837)
(-0.0610402224197 -0.37899689257 0.239143199874)
(-0.0865658438339 -0.342237635848 0.138124074229)
(-0.0835729151141 -0.296855068601 0.20211811558)
(-0.0978463746137 -0.305269708144 0.138964273492)
(-0.0739359477489 -0.331654963448 0.220090721002)
(-0.00222908147137 -0.0854199111267 0.668439399809)
(-0.0596346037095 -0.324522079921 0.184605953372)
(-0.0701544802887 -0.329147831864 0.116336956854)
(-0.0533091127506 -0.334296076409 0.181825181198)
(-0.0600138066763 -0.336127667466 0.110987249961)
(0.0321793814267 -0.159137379769 0.902128940687)
(0.0269378902765 -0.191501862466 0.825262178296)
(0.0416414660458 -0.241250782773 0.943337220283)
(0.0105360552232 -0.230330119112 0.742996249235)
(-0.00117611171632 -0.1493206325 0.743480359417)
(0.0044976135734 -0.131689940175 0.753394637999)
(0.07159731674 -0.711161593007 0.682496958762)
(0.0474518930946 -0.546931686372 0.676972209154)
(0.0586545444529 -0.592566436761 0.643401516653)
(0.0902165481197 -0.659043744631 0.743903478134)
(0.0912281982248 -0.70844523116 0.731457642117)
(0.0693687712668 -0.600900146062 0.652759897209)
(0.0673614288618 -0.55198177926 0.681616144028)
(0.101864880395 -0.64899489271 0.796371341621)
(0.0723378451669 -0.594608382213 0.645714273816)
(0.0966281976492 -0.655451628274 0.769293055517)
(0.103344210825 -0.704024826689 0.759481819883)
(0.142791250996 -0.695415420255 0.786734845369)
(0.0727118101474 -0.602240498218 0.693418046695)
(0.110512508588 -0.554915797187 0.742771713223)
(0.103143098177 -0.647888238481 0.805917046705)
(0.112311243597 -0.63674894681 0.83185258089)
(0.0816647991182 -0.604267825305 0.720082311783)
(0.124363535871 -0.704965481562 0.773841794837)
(0.0673421894556 -0.702674611943 0.32060937272)
(0.0865268102589 -0.773666118451 0.25650999422)
(0.0577592558177 -0.676138971315 0.283349670669)
(0.0531655040131 -0.702030064788 0.21133663449)
(0.073934845977 -0.713550769364 0.325636501421)
(0.0512674136251 -0.665867391784 0.281670933939)
(0.0730674038217 -0.750891134092 0.253595260058)
(0.0760378890254 -0.723656611946 0.368182661549)
(0.0859552165456 -0.729058955203 0.396026074334)
(0.101076223888 -0.819013367637 0.368161488171)
(0.0723133257426 -0.770673004785 0.305015742981)
(0.0829521468779 -0.783210626864 0.30752038015)
(0.091603955561 -0.735603579269 0.402274575526)
(0.0689439502023 -0.720374352548 0.36286977167)
(0.0856773451964 -0.734227942951 0.373093888238)
(0.112066499539 -0.824474122689 0.329385691415)
(0.10920791435 -0.75697654898 0.422329487472)
(0.119488258118 -0.843878193298 0.382978014325)
(0.0907836102456 -0.745127519419 0.38173239353)
(0.097039800121 -0.802998244831 0.318640020196)
(0.103000246714 -0.747389349349 0.410843600051)
(0.100163541928 -0.745079351495 0.468714139034)
(0.126253705371 -0.849651434206 0.463379291379)
(0.127842424816 -0.846113691785 0.531831338037)
(0.107288991248 -0.750698725247 0.474115777236)
(0.135293751451 -0.848672614654 0.553003201805)
(0.118928777302 -0.749275603019 0.53621492648)
(0.121636873595 -0.752309594007 0.528571857758)
(0.159047330301 -0.871553511236 0.613537283254)
(0.117808664939 -0.763913098389 0.50529205049)
(0.144672584839 -0.864397762931 0.489703191739)
(0.116873367632 -0.758352985339 0.489323566551)
(0.151098973535 -0.861265354413 0.586038993639)
(0.125537646126 -0.758126825684 0.548455011533)
(0.131865529474 -0.765062548607 0.564881067983)
(0.0134256819387 -0.050671973576 0.865421172699)
(0.0165627906047 -0.0858362419226 0.867248028057)
(0.00879156927958 -0.10452111761 0.811186505797)
(0.00033566368516 -0.062447338223 0.776038204411)
(0.00179163730814 -0.0521108753299 0.78572118178)
(0.0259471415302 -0.307478746757 0.698792127774)
(0.0376206659531 -0.4093607638 0.723138825163)
(0.0336829953679 -0.347143009014 0.773833725788)
(0.0237911109633 -0.289821997506 0.72531720238)
(0.0462663957414 -0.306604347046 0.718839279767)
(0.0564531387514 -0.408427325424 0.741519792813)
(0.0515619856462 -0.34441206157 0.791911798677)
(0.035711589162 -0.293963164906 0.745015693621)
(0.05880653076 -0.695739808478 0.315817565731)
(0.0462865130405 -0.682465350254 0.220531326308)
(0.0395640994179 -0.662778573167 0.272666559445)
(0.0562380592737 -0.723953427451 0.252342294382)
(0.0433764551607 -0.661502572398 0.277092725184)
(0.0620494946084 -0.732227890014 0.252936276701)
(0.0558768262372 -0.695005830189 0.313102432447)
(0.0413306624903 -0.640585050493 0.236177863139)
(0.0375882172493 -0.661911756 0.173212737242)
(0.0295031339075 -0.631509793505 0.163510075499)
(0.0378636510638 -0.63633003405 0.231768789005)
(0.0252286446501 -0.623958776116 0.164019136895)
(0.0258922919056 -0.616889386487 0.211680902275)
(0.0717912764603 -0.33741391769 0.923211834599)
(0.0377768357463 -0.309569211851 0.906882648422)
(0.0626830532252 -0.341344714797 0.914166586071)
(0.0275949705015 -0.312111288716 0.904489081152)
(0.156649926438 -0.840761983947 0.695344553839)
(0.163192094334 -0.824894738086 0.744312327392)
(0.149576216403 -0.83302485195 0.681907015952)
(0.136821408128 -0.762231709894 0.622621445788)
(0.135089153207 -0.726389754741 0.659810746021)
(0.138784641949 -0.764471497443 0.630203257379)
(0.135841485149 -0.733291322017 0.647369554314)
(0.153057665082 -0.824112484266 0.729616749989)
(0.132322363906 -0.82579465104 0.633798828505)
(0.137987708666 -0.829174775889 0.660450192564)
(0.127231649221 -0.761863662362 0.610323104703)
(0.125994111226 -0.732751190126 0.631488049356)
(0.125784040975 -0.758684053014 0.60196105143)
(0.126394735683 -0.733806297853 0.638570818515)
(-0.0769578126604 -0.270101893986 0.171878404222)
(-0.0686427822162 -0.279197906567 0.16437995349)
(-0.0502180045532 -0.25213229706 0.254922934072)
(-0.0443162581949 -0.213832887232 0.374924146597)
(-0.0817179979837 -0.288287667146 0.0969906309108)
(-0.06224272973 -0.287211927962 0.160502762134)
(-0.0710497496202 -0.295434426934 0.0921856031152)
(-0.0642083067968 -0.235653308058 0.269015465635)
(-0.0610456193525 -0.203588011883 0.38191687428)
(-0.084022304819 -0.263520033286 0.179077256569)
(-0.0892913952013 -0.279764088626 0.105598755713)
(-0.098246960657 -0.273873063152 0.113070677186)
(-0.0942728831202 -0.25370541133 0.184301689402)
(-0.106928464247 -0.263198090569 0.124156678137)
(-0.08107507256 -0.254628210866 0.0861071778053)
(-0.0807923321593 -0.255381089829 0.160378011313)
(-0.0898933958367 -0.247763184121 0.0880021580007)
(-0.074081973479 -0.262933863988 0.156270572102)
(-0.110176274286 -0.240690380131 0.105698033512)
(-0.087805148113 -0.246698967984 0.16821560551)
(-0.0966179011984 -0.240236070029 0.177465185632)
(-0.0978002028582 -0.242529448313 0.0973442124153)
(-0.11887359809 -0.231507793135 0.122887816772)
(-0.106936646613 -0.232343987713 0.179387774814)
(0.00137506564178 -0.00742821416571 0.797497175827)
(0.00634556481862 -0.00807847533005 0.777808397534)
(9.63891564475e-05 -0.00113467216032 0.799668308732)
(0.000186983418209 -0.000778672325719 0.798525841829)
(0.000324200280239 -0.00328308056731 0.798435076134)
(0.000681364083557 -0.00220090393836 0.792791429858)
(0.0032816808972 -0.0141284404266 0.788013295436)
(0.0200250577888 -0.037727050799 0.815972817634)
(0.11992107984 -0.179292197449 0.900099361029)
(0.0809880130031 -0.306638858971 0.719465658406)
(0.000204791860204 -0.00089606473923 0.801340308088)
(0.00111684050267 -0.00293459303779 0.800524038889)
(0.105351657076 -0.384808408288 0.316113204088)
(0.0916776408562 -0.125638557836 0.877112545897)
(0.0933532654262 -0.265755925148 0.841973707923)
(0.0849685121486 -0.175274761882 0.807512846431)
(0.0890847199054 -0.264658372134 0.697429851943)
(0.0171802227552 -0.0382064428564 0.737524891824)
(0.025718500258 -0.0376013854232 0.74339918569)
(0.11814033509 -0.25274472572 0.876275778848)
(0.168601717242 -0.445851611424 0.416715577071)
(0.011756980554 -0.191355883274 0.293976288821)
(0.0903911383795 -0.352272118266 0.282274413537)
(0.101677182701 -0.273231468745 0.806804773719)
(0.0129247170608 -0.256878915635 0.356554051866)
(0.13238089991 -0.424824633094 0.382152158998)
(-0.00942884942616 -0.246421744031 0.350819547873)
(0.00286130513296 -0.0087621663788 0.797811892673)
(0.00351300588849 -0.00662595171775 0.804913910517)
(0.0135242838858 -0.0227830551575 0.815710699621)
(0.10834032685 -0.295284524403 0.446788472627)
(0.0400363936966 -0.0712025249328 0.632011903755)
(0.0463603875814 -0.0695960714552 0.646631768915)
(0.0174224249364 -0.0570339808052 0.810996387253)
(0.0592703165858 -0.115016741112 0.811100270852)
(0.0621044386458 -0.225693119408 0.759055379826)
(0.00908400804451 -0.0343548150161 0.773164178479)
(0.013431088357 -0.0265584576594 0.787004001502)
(0.0106594122595 -0.0296382580745 0.785322058545)
(0.0171541681745 -0.0323364795425 0.779470477448)
(0.0983556065043 -0.319805134161 0.761817460535)
(0.0887976308086 -0.399040111158 0.612827476714)
(0.122503001347 -0.41771681855 0.674695575577)
(-0.0114593129288 -0.176818553192 0.298979124435)
(0.0607399561274 -0.397759750541 0.576655030089)
(0.175963670702 -0.487951582816 0.460622681003)
(0.169989700762 -0.47615578631 0.43380951259)
(0.0267025893886 -0.167914133747 0.227591943821)
(0.050774368374 -0.219927474692 0.203786073484)
(0.102966968182 -0.206607595118 0.873862018328)
(0.0491130762971 -0.125269576082 0.858994036089)
(0.0486056707891 -0.107279906427 0.867059471378)
(0.0987918678035 -0.219610913638 0.770263764569)
(0.121292208957 -0.332817594173 0.518678200177)
(0.0680657834944 -0.0922157378711 0.698174289873)
(0.0561895779942 -0.0919067944591 0.744379186465)
(0.0588539303582 -0.0958194459079 0.730539427568)
(0.059988069756 -0.0903062290862 0.711587796897)
(0.00804934213703 -0.138227343066 0.412783929479)
(0.0660510036669 -0.211558208828 0.428325173927)
(0.0227454380887 -0.0619599936996 0.628632630746)
(0.0114225255635 -0.0534674737111 0.626699843434)
(0.0881280616028 -0.219972366463 0.773773281361)
(0.0237869759704 -0.217560022294 0.487180765397)
(0.0916973046036 -0.284205663258 0.545072001966)
(0.0499167794445 -0.0903885305238 0.681933555546)
(0.0292368531862 -0.0961730689171 0.702275958772)
(0.0415314886825 -0.0926138419531 0.714268868772)
(0.0304351935771 -0.0894789231084 0.676579897555)
(0.187134989711 -0.509720244962 0.542178023362)
(0.18130833559 -0.361549476915 0.82724891785)
(0.186958575482 -0.500222160573 0.505270100897)
(0.173778709691 -0.434839027198 0.723058675747)
(0.178784259507 -0.410894495448 0.808624016101)
(-0.0365052708355 -0.0568927011132 0.281837377007)
(0.0417163945008 -0.25029765226 0.27745621561)
(-0.0228345912077 -0.0958413871953 0.265926813927)
(0.0104437906944 -0.154290286683 0.239794967331)
(0.0589132958147 -0.268740127626 0.281498605377)
(-0.0102661837253 -0.10794307389 0.260032902146)
(0.0925848144351 -0.390685940445 0.496357500575)
(0.0506242556783 -0.323643471613 0.337594532708)
(0.123147532331 -0.444093058679 0.537675787635)
(0.173239344004 -0.439555090233 0.660844649416)
(0.0758320320378 -0.343652168024 0.348523651621)
(0.153992396482 -0.448450293286 0.581201541055)
(0.0623615976868 -0.380508698616 0.470742587731)
(0.167830726837 -0.547140733518 0.541164683786)
(0.118931664729 -0.459470149238 0.344569107638)
(0.200267956576 -0.416404619983 0.610169438448)
(0.381806281059 -0.809807654479 0.85460961055)
(0.145942138258 -0.5224401321 0.0362002290207)
(0.170020240796 -0.45265870985 0.443196427334)
(0.18048400577 -0.49013760893 0.517033699902)
(0.152151853619 -0.41976979533 -0.0628574940717)
(0.195293392643 -0.475695917499 0.585625860311)
(0.388290962109 -0.972584538265 0.511540892917)
(0.0953940575741 -0.309480674625 0.784131489209)
(0.161321724056 -0.385023096343 0.750650214551)
(0.156762305292 -0.401992771137 0.727885005329)
(0.148193871372 -0.374207079356 0.501143441952)
(0.0718339338566 -0.212625046557 0.345153488203)
(0.0817732667011 -0.143468067857 0.558039390346)
(0.0959156999461 -0.172330127869 0.579388871184)
(0.0849584494403 -0.155891047909 0.554293953103)
(0.0935038324481 -0.165458190453 0.584089245243)
(0.223140993796 -0.673051537731 0.878859765772)
(0.290841412117 -0.848575473198 0.754083392462)
(0.217392674681 -0.62891893627 0.912367716973)
(0.239734066124 -0.819636995302 0.583241144014)
(0.228957605386 -0.702701068286 0.864258255138)
(0.159391377985 -0.734294857225 0.384809839222)
(0.212895547057 -0.710768450597 0.768040020654)
(0.229123810682 -0.830794172881 0.541399984455)
(-0.0493231439777 -0.0493216948343 0.295266997988)
(0.153156221132 -0.723692008362 0.362101204266)
(0.215562755842 -0.71783121416 0.752909758518)
(0.16958537405 -0.529286578469 0.523687780214)
(0.115769113003 -0.398449230031 0.322164759016)
(0.121346149035 -0.445585686965 0.341575960947)
(0.00860372205959 -0.0438441636674 -0.0122721447024)
(0.179390823451 -0.338321611351 0.529344273123)
(0.170472955697 -0.114017056749 0.179025894062)
(0.154697243635 -0.169044557726 0.309715241052)
(0.0293360567394 -0.129787058991 -0.0375647606083)
(0.0280930471142 -0.147383236379 -0.0205786333115)
(0.0422448166897 -0.211044797699 0.00259515497094)
(0.165387105208 -0.374376752984 0.607209359283)
(0.152320649812 -0.310415962503 0.738151078161)
(0.0864562783389 -0.169682101113 0.716495504615)
(0.109401126694 -0.187582170235 0.675158287107)
(0.104103220453 -0.190937697156 0.686889646432)
(0.0908711161257 -0.193862581499 0.709704704907)
(0.154656116488 -0.359772578423 0.568385217806)
(0.138495668861 -0.337889994487 0.695541928734)
(0.148338610169 -0.311440031114 0.721294110758)
(0.0646675278949 -0.173949100919 0.700301252434)
(0.0514877669237 -0.168138199472 0.656980898574)
(0.0637851917618 -0.183125308864 0.675098682313)
(0.0502305749328 -0.174027029188 0.672674500138)
(0.344288449496 -0.613359494551 1.07680340012)
(0.191480658655 -0.534370858899 0.615392831569)
(0.212748613251 -0.489879581065 0.723662124222)
(0.240693857362 -0.548053585461 0.848291427322)
(0.229378216687 -0.479147909477 0.76928110418)
(0.367551430508 -0.641474015051 0.98967837195)
(0.354807751863 -0.53490287817 1.17325206411)
(0.191453871379 -0.214773204556 0.489030305852)
(0.329888385659 -0.537914560983 0.999260987914)
(0.317991765676 -0.633021026938 0.888430620283)
(0.116590226505 -0.385019256166 -0.0171152082284)
(0.385681913154 -0.885520599706 0.585898039151)
(0.373790229074 -0.804143488379 0.8715315817)
(0.177403163655 -0.469678513228 0.46055421574)
(0.205703726599 -0.470954056156 0.635783920701)
(0.127919782669 -0.396040326914 -0.0285589943993)
(0.206960216446 -0.469249152936 0.603228542998)
(0.36442777272 -0.685083628211 0.939802813724)
(0.315495449364 -0.669609559229 0.912569615755)
(0.309506600912 -0.574258039423 0.987686612368)
(-0.0247807636795 -0.156288669516 0.0689704212632)
(0.0387474620663 -0.322530482858 0.0502873213118)
(-0.00513286107917 -0.176358129835 0.0646416690702)
(0.00794543296247 -0.286291431332 0.0784853721369)
(0.0167859156525 -0.185282521081 0.0353580541353)
(-0.00692626312088 -0.161689916315 0.0618278878245)
(0.0263796525371 -0.208114173074 0.029865588558)
(0.113330369439 -0.377849760797 -0.0203303354079)
(0.0456568300947 -0.220307427358 0.00266180394024)
(0.0776556794074 -0.364783752556 0.0107918954893)
(0.019916538283 -0.188768169647 0.0313208562113)
(0.0407420167474 -0.210250196422 0.00325037219977)
(0.0233427139851 -0.205087675927 0.035762455968)
(0.0425125256757 -0.328086398243 0.0477466440879)
(-0.00154534652173 -0.180534168705 0.0607808314291)
(0.075824965654 -0.361214746577 0.0099848629685)
(0.0999264471365 -0.546358083877 0.134175337865)
(0.29798575216 -0.869603792473 0.666961027834)
(0.223387337917 -0.809033058187 0.46644736674)
(0.163667512646 -0.659356790833 0.123315818842)
(0.0780489741477 -0.494686486368 0.115094438065)
(-0.00740376959398 -0.276348070675 0.0888620390536)
(0.0118354373752 -0.302460373248 0.0811772043419)
(0.0268128633761 -0.423051356212 0.103480914868)
(0.0860453937015 -0.50529409416 0.113666421551)
(0.0482412672927 -0.348562363636 0.0544291948014)
(0.0148683029452 -0.307816620733 0.0831443397619)
(0.141750198205 -0.60209121368 0.089517164092)
(0.0905753084708 -0.533686511098 0.13396955922)
(0.141619309167 -0.702952059826 0.315505948844)
(0.212218065083 -0.79999149348 0.427628435965)
(0.0478592823019 -0.473443768466 0.136872860583)
(0.242763582466 -0.840052843001 0.189455973376)
(0.290653409142 -0.866241332414 0.688617596622)
(0.310992813073 -0.796741519383 0.921856740966)
(0.172332686459 -0.677146414743 0.12223734617)
(0.224447467242 -0.80664369777 0.149557618422)
(0.120383781047 -0.390238528886 -0.0166711793103)
(0.389690328671 -0.885029618756 0.531558702594)
(0.0854062178891 -0.392115790735 0.0128131982835)
(0.242486447508 -0.854640919397 0.196965471861)
(0.316253420506 -0.671104186539 1.0151345311)
(0.396349116423 -0.87808929173 0.621024504402)
(0.327517945972 -0.735045462029 0.949833497452)
(-0.0171944041933 -0.271381026679 0.0975505071457)
(0.0175119640508 -0.408817111296 0.109007616347)
(0.134326210781 -0.691124758408 0.299114299587)
(0.0440421556374 -0.471523048977 0.132278508624)
(0.0620000122432 -0.287600817189 -0.0140188838077)
(0.128427260744 -0.479573936829 0.0191451058253)
(0.147969856027 -0.420985720225 0.383422126931)
(0.080210722637 -0.310985017604 0.284250709473)
(0.0927171560875 -0.326528308995 0.275776293681)
(0.136332922187 -0.411675492276 -0.0759048973147)
(0.0530941257587 -0.271122476513 0.0313203870308)
(0.101640676123 -0.194913865099 0.892244665673)
(0.0677019245435 -0.0479908534181 0.904620803111)
(0.0413308688123 -0.0722811356586 0.90782305065)
(0.0823941531283 -0.242774543191 0.717277393106)
(0.0660502980397 -0.265879574054 0.63605350806)
(0.0705920362806 -0.272186299561 0.662760421842)
(0.0525407869551 -0.178207398591 0.669811072436)
(0.034553768797 -0.149193990911 0.695303478227)
(0.0448843023505 -0.159752784289 0.692522787887)
(0.0428468332139 -0.178021630713 0.685458841751)
(0.319425611809 -0.56724537918 1.11355144948)
(0.192607331883 -0.534708398701 0.631698223994)
(0.253661509058 -0.56733026455 0.87331420653)
(0.2153942978 -0.446425731005 0.810327276043)
(0.138926940356 -0.235653961286 0.881651571707)
(0.157309901166 -0.373533223773 0.813640972898)
(0.164937336629 -0.343966054795 0.849641811644)
(0.0315022762999 -0.24895671312 0.0842519452905)
(0.125371880132 -0.472775698611 0.020195736974)
(0.0525878896751 -0.293842661564 0.272663284347)
(0.0833064838134 -0.323658011565 0.283462887104)
(0.0497694185001 -0.266553667815 0.0360895960853)
(0.0534203305052 -0.266838724807 0.280412575818)
(0.085272176472 -0.411532853368 0.0634186693474)
(0.0764050925089 -0.462177772013 0.186373191439)
(0.0501133030922 -0.305378231178 0.370803581778)
(0.0232612262722 -0.27754219279 0.346334515393)
(0.00186073610378 -0.28206567544 0.165127033925)
(0.0511578064711 -0.328944263525 0.363220331343)
(0.0229250006034 -0.318363799652 0.149475278576)
(0.0396563228482 -0.410308558917 0.200766089807)
(0.225366459434 -0.768761809202 0.229850446837)
(0.142738600682 -0.5131160211 0.0348609475718)
(0.15310386324 -0.471089168744 0.449864267322)
(0.112897367407 -0.388444587766 0.374940942745)
(0.139588934516 -0.44896983242 0.435102041102)
(0.410528696452 -0.991773938288 0.498573151337)
(0.0970381737271 -0.441604357775 0.0742372043565)
(0.0269372486838 -0.288916448565 0.366620808507)
(-0.0103349654032 -0.272740631534 0.207767973098)
(0.029686014996 -0.393607033674 0.205314129783)
(0.142590840613 -0.348260096237 0.476239952188)
(0.0508251168054 -0.155151494406 0.402152698917)
(0.0647464026185 -0.198900822678 0.33811669211)
(0.0579057765912 -0.130942453743 0.548621917898)
(0.0547915121145 -0.119005567271 0.575156726193)
(0.0668355541484 -0.154121598614 0.571482093283)
(0.0604883987943 -0.106660425848 0.551908412473)
(0.0648721823915 -0.186124159613 0.79984413613)
(0.02721405923 -0.12570036409 0.793789492782)
(0.0257510101002 -0.0889087870015 0.771529728767)
(0.038776395291 -0.10353290475 0.803245080916)
(0.0279829088985 -0.0861117390497 0.769701559625)
(0.0236600361849 -0.0843285013918 0.775618787296)
(0.0169781630158 -0.0833350031966 0.769124440121)
(0.174355401906 -0.548269360984 0.78800688222)
(0.0998029810211 -0.403448653244 0.673347049872)
(0.0943546056602 -0.41376054269 0.618531664798)
(0.147860507017 -0.630913010906 0.491446585895)
(0.160200010338 -0.591054339074 0.716358741635)
(0.0984428454969 -0.404061020079 0.68486039589)
(0.195538855619 -0.668642923914 0.551399465201)
(0.166007163469 -0.541595147366 0.907330631754)
(0.198587492941 -0.666959607767 0.824924200647)
(0.0673980796746 -0.409694083728 0.628072142766)
(0.133362625247 -0.620609366452 0.458208558996)
(0.154544705704 -0.604270216168 0.679979838551)
(0.105730404087 -0.400283811715 0.277401487927)
(0.0968258343983 -0.347307447852 0.27191660799)
(0.105963054837 -0.38737765928 0.279490154139)
(0.00157849766689 -0.0637580628077 -0.0136403531081)
(0.0304214511336 -0.140800429452 -0.0196344844768)
(0.110392116152 -0.372671702225 -0.0195326039099)
(0.046524889066 -0.219942143174 0.00280855263867)
(0.0623548762425 -0.279019356582 -0.0138974993635)
(0.160346949744 -0.444883175784 0.395424176646)
(0.114951274823 -0.38304771304 0.310818332503)
(0.107312416567 -0.367212134772 0.278941355861)
(0.00732587673242 -0.0748996437357 -0.0134851329684)
(0.122632104578 -0.384622360318 -0.0468963204193)
(0.0459673677269 -0.273029648427 -0.00340712267843)
(0.0433285521946 -0.222021943814 0.226788965601)
(0.0384537438363 -0.186181045215 0.220007676878)
(0.0564405669204 -0.251705434476 0.222963546033)
(0.0443400591285 -0.250433868265 0.0319968284426)
(0.0484689598902 -0.239890118915 -0.0193027013613)
(0.093219745782 -0.333150093922 0.265225699878)
(0.0517758591854 -0.206159206501 0.221888938399)
(0.0782930633083 -0.291104495692 0.236566309638)
(0.00851196446483 -0.084216442941 -0.0110409595034)
(0.0287506045722 -0.117553470429 -0.0291238280573)
(-0.0115770612355 -0.0823426359448 0.404318192617)
(0.01964669964 -0.156567948349 0.418002598543)
(0.000139079866844 -0.101898124022 0.40381564951)
(0.00149840172334 -0.0621379777015 0.530456510029)
(0.00337735401882 -0.089297327972 0.537440555065)
(0.0102201056066 -0.0989806712509 0.540946968288)
(-0.000952310754132 -0.0565379083746 0.527227296279)
(0.0382913128469 -0.14592286288 0.401854211889)
(0.0473789945501 -0.179853993115 0.425271844958)
(0.0185851857045 -0.120626978029 0.407669543076)
(0.0255644690751 -0.0765897074288 0.532258520809)
(0.0333786873575 -0.111209841238 0.556758103419)
(0.0225329762759 -0.084543668173 0.533003123164)
(0.0292407154106 -0.110526528765 0.544886963824)
(0.0600734292833 -0.269520099973 0.53906832857)
(0.0363346972366 -0.242825798732 0.499627223901)