/*--------------------------------*- C++ -*----------------------------------*\
| =========                 |                                                 |
| \\      /  F ield         | OpenFOAM: The Open Source CFD Toolbox           |
|  \\    /   O peration     | Version:  2406                                  |
|   \\  /    A nd           | Website:  www.openfoam.com                      |
|    \\/     M anipulation  |                                                 |
\*---------------------------------------------------------------------------*/
FoamFile
{
    version     2.0;
    format      ascii;
    arch        "LSB;label=32;scalar=64";
    class       volScalarField::Internal;
    location    "0.01";
    object      V0;
}
// * * * * * * * * * * * * * * * * * * * * * * * * * * * * * * * * * * * * * //

dimensions      [0 3 0 0 0 0 0];

value           nonuniform List<scalar> 
29767
(
1.48841351748e-08
1.85790007769e-09
1.82171920227e-09
1.4800736338e-08
1.83423686175e-09
1.48253169932e-08
1.48070201551e-08
1.48535979012e-08
1.84352261922e-09
2.52598248862e-11
2.70040506155e-11
2.50651809298e-11
2.78348021623e-11
2.47233636834e-11
2.79269741861e-11
2.59239489604e-11
2.68045356174e-11
2.68576018856e-11
2.69772813332e-11
2.65793747405e-11
1.83838211488e-09
1.83780081287e-09
1.8457798185e-09
2.18692247116e-10
2.27186872382e-10
2.23502587413e-10
2.2351071272e-10
3.64232380865e-12
2.46118480333e-11
2.62086428322e-11
3.25097867689e-12
3.64232380865e-12
2.53987267165e-11
2.85894962421e-12
2.17361423672e-10
2.25651414892e-10
2.22780207662e-10
2.23161192971e-10
1.87083574481e-09
1.86102450914e-09
2.16567372531e-10
2.25910616315e-10
2.2396698756e-10
2.2266619368e-10
2.21419312644e-10
2.28034359492e-10
2.24928246488e-10
2.24422663912e-10
2.29496858242e-10
2.30184374743e-10
2.33260015484e-10
2.2607281518e-10
2.27676853815e-10
2.29571472965e-10
2.32692113099e-10
2.25567156578e-10
2.24745139225e-10
2.29600039012e-10
2.26536267056e-10
2.30364944363e-10
3.41339634956e-12
2.67259549936e-11
2.65312085795e-11
2.42913964394e-11
2.59290727564e-11
2.41488566895e-11
2.40159281219e-11
2.22959217948e-11
2.5525763855e-11
2.54209184728e-11
2.29926055687e-11
2.53924749147e-11
2.22503648886e-11
2.30458893747e-11
2.28076420834e-11
2.58582958364e-11
2.564462319e-11
2.33797543205e-11
2.8790333409e-12
2.43748799715e-11
2.56183360412e-11
3.27659662964e-12
3.64204408176e-12
2.59063098365e-11
2.64456729192e-12
2.41342102743e-11
2.62392850689e-11
2.68147977414e-11
2.37725979133e-11
2.43715958999e-11
2.66415729048e-11
2.39425795338e-11
2.30927969212e-11
2.68274304845e-11
2.66100148163e-11
2.36494944018e-11
2.33220962215e-11
2.623866176e-11
2.64911145827e-11
2.37700766603e-11
2.38843664354e-11
2.69478376206e-11
2.40265888044e-11
2.66469926942e-11
2.43813883172e-11
2.66025099874e-11
2.32474316931e-11
2.3016604247e-11
2.63489466107e-11
2.65533898326e-11
2.23569587563e-11
2.37294096855e-11
2.66164897346e-11
2.69292465093e-11
2.39379129219e-11
2.40271713881e-11
2.69760111409e-11
2.33276535268e-11
2.32623587167e-11
2.65071692734e-11
2.34910565787e-11
2.66413208304e-11
2.30389795123e-11
2.26357741311e-11
2.67793884653e-11
2.41306694049e-11
2.74494667746e-11
2.34791553911e-11
2.65662990012e-11
2.29378724169e-11
2.38567117427e-11
2.70599466769e-11
2.44148137011e-11
2.702464106e-11
2.45193260299e-11
2.7217546247e-11
2.40461352077e-11
2.75539733596e-11
2.34430353492e-11
2.72976093734e-11
1.49298341176e-08
2.64374568548e-11
2.16058354932e-11
2.6314732875e-11
2.18460293202e-11
1.8572484586e-09
1.85299675608e-09
1.85861180361e-09
1.84485262428e-09
1.84236381219e-09
1.85058518958e-09
2.46230042736e-11
2.76556718477e-11
2.64724702508e-11
2.65955687404e-11
2.45394808594e-11
2.66398636289e-11
2.76627667196e-11
2.68223551248e-11
2.64169803401e-11
2.6657374134e-11
2.45774576403e-11
2.56484568425e-11
2.67994044322e-11
2.81781201117e-11
2.70662390989e-11
2.74514306333e-11
2.71382673268e-11
2.49222165262e-11
2.67418927698e-12
3.64232380865e-12
2.7285073684e-12
3.40059227779e-12
2.73819578631e-12
2.58795987842e-12
3.64232380865e-12
2.54878404953e-12
2.57930663413e-12
3.64232380865e-12
3.05663064413e-12
3.41002517115e-12
2.56408133945e-12
2.66795619101e-12
2.65139130185e-12
3.64232380865e-12
2.67433634214e-12
3.64232380865e-12
2.71055083459e-12
3.64232380865e-12
2.6026498238e-12
2.55560561635e-12
3.64204408176e-12
3.29147276253e-12
2.4972286037e-12
3.64232380865e-12
2.44188099636e-12
2.56520533242e-12
3.19821530978e-12
2.62524001742e-12
3.64204408176e-12
2.53777548054e-12
3.4329247302e-12
2.50669385154e-12
2.58475049943e-12
1.48868463358e-08
1.48904069601e-08
1.48732707706e-08
1.48739221717e-08
1.48916530279e-08
2.27977673155e-10
2.27460793075e-10
2.29009236943e-10
2.30158303164e-10
2.28300886785e-10
2.28355138188e-10
2.29594343688e-10
2.30400033482e-10
2.59270579906e-12
3.01336165112e-12
3.00678328882e-12
2.94031993345e-12
2.68382759816e-12
3.21513268865e-12
2.91047877899e-12
2.63241594234e-12
3.09900435923e-12
3.12472830754e-12
2.70935471475e-12
2.98073210885e-12
2.95449365656e-12
2.31203288655e-10
2.31971851031e-10
2.30816874549e-10
2.32101648965e-10
2.69617560812e-12
2.6697804701e-12
2.82436017844e-12
2.60459223231e-12
3.11509652661e-12
2.82381485013e-12
3.01026319089e-12
2.60567082247e-12
2.94949476494e-12
3.03093837356e-12
2.46472040503e-12
2.97532812863e-12
2.63198198295e-12
2.95169998946e-12
2.77010324639e-11
2.70757565802e-11
2.3355781424e-10
2.34937917259e-10
2.20317278024e-11
2.67753193471e-11
2.11463428401e-11
2.35627514963e-10
2.3537311583e-10
2.8040674467e-11
2.39333544152e-11
2.37933582087e-11
2.80593654118e-11
2.35281326911e-11
2.57030328576e-11
2.83602230739e-11
2.66007388593e-11
2.81936021412e-11
2.70513041026e-11
2.87325233733e-11
2.89654497936e-11
2.74910975155e-11
2.62807121193e-11
2.88614553462e-11
9.54637466992e-07
9.53329950872e-07
7.63728778985e-06
7.6363064162e-06
7.63664969897e-06
7.63492112323e-06
9.53563346042e-07
1.49089274226e-08
1.86501273438e-09
2.30152496308e-10
7.638528879e-06
9.54688113821e-07
2.22547618345e-10
1.86449262798e-09
1.85363985647e-09
1.86113324516e-09
1.83294671745e-09
1.1883836909e-07
1.18748459713e-07
1.86679727274e-09
2.14145158118e-10
2.35361070361e-10
2.22695144233e-10
2.33283906168e-10
2.32586336235e-10
2.17990101338e-10
2.32702659407e-10
9.54186616414e-07
9.54697356037e-07
1.19319357158e-07
2.28941159828e-10
1.48193971072e-08
1.47797524331e-08
1.48953688041e-08
1.49030662245e-08
1.85023977912e-09
1.18947565439e-07
1.19215031308e-07
1.1914592014e-07
1.19031731808e-07
2.31618940689e-10
2.1970612762e-10
2.20521594093e-10
2.34895645355e-10
2.21223110826e-10
2.576054995e-11
2.62478809952e-11
2.26281527932e-10
2.23225408465e-10
1.86347192841e-09
1.86196825513e-09
1.8654888384e-09
1.86039506227e-09
2.24526295975e-10
1.4758079182e-08
1.48503199691e-08
1.48238471445e-08
1.47706034671e-08
1.88624966718e-09
1.84045489503e-09
1.4879419626e-08
1.4962692464e-08
1.85026991226e-09
1.85752648514e-09
1.80058143447e-09
1.47540557938e-08
1.47624460656e-08
1.47797849825e-08
1.48157941038e-08
2.60258579654e-11
2.33970834022e-10
2.60886533629e-11
2.26033051337e-10
2.33518708661e-10
2.38315295232e-10
2.28608554561e-10
2.36523912975e-10
2.28382746693e-10
2.28608543307e-10
2.33637816375e-10
2.23601810128e-10
2.29279552167e-10
2.15856289435e-10
2.23874789101e-10
2.31004961357e-10
2.14620384982e-10
2.25759520533e-10
2.63184900726e-11
2.66576090792e-11
3.64265950669e-12
2.53749273591e-12
3.64232380865e-12
2.70424300516e-11
2.05297413984e-10
4.5604236609e-13
2.7538665906e-11
3.64260355702e-12
2.31405380256e-10
2.29904030179e-10
2.21741580179e-10
2.20998881151e-10
2.34877187813e-10
1.85605971824e-09
1.83268736952e-09
1.85201912719e-09
1.83597274059e-09
2.78528079312e-11
2.80209108336e-12
2.84720456218e-11
3.18896063569e-12
2.76260508255e-11
2.66475422256e-12
2.56419777775e-11
3.06913968919e-12
2.38151463373e-10
2.61943816998e-12
2.52400745722e-11
2.60521103255e-11
2.77624588318e-11
2.66673368781e-11
4.36200134877e-13
3.64232380865e-12
3.64265950669e-12
4.55325441942e-13
4.65449620356e-13
4.67419127532e-13
4.55325441942e-13
2.23599094323e-10
2.32555527131e-10
1.85118905317e-09
1.83383685252e-09
1.83570133442e-09
1.84988362463e-09
2.21632619554e-10
2.27795334718e-10
2.31901399104e-10
1.84517265712e-09
1.82663006349e-09
1.82920210676e-09
1.83413074773e-09
2.91536091752e-11
2.72507507194e-11
2.26635326086e-10
3.4366028923e-12
2.30507419958e-10
2.76021584407e-11
2.91943759099e-11
3.64204408176e-12
2.74029060638e-11
2.42292496145e-12
4.55325441942e-13
4.55325441942e-13
2.87299340712e-12
2.67775243648e-11
2.862967468e-11
4.5161082162e-13
2.77939581728e-11
2.67738605225e-11
2.57634247323e-12
2.62935120345e-11
2.1837900466e-11
2.92743167549e-12
2.64436648294e-12
2.49950661988e-12
3.52309530045e-12
2.65874760038e-12
3.64260355702e-12
4.55325441942e-13
4.5525551022e-13
3.64260355702e-12
3.64260355702e-12
4.5525551022e-13
3.64260355702e-12
3.06075008214e-12
2.71850123807e-12
3.64260355702e-12
2.86100238455e-12
3.00433909994e-12
3.64260355702e-12
3.64260355702e-12
2.91770732602e-12
2.25229006911e-11
2.6021802206e-12
2.41539305624e-11
2.88837899109e-12
2.97388576963e-12
2.53070241988e-12
3.64260355702e-12
2.90892672129e-12
2.69513372124e-12
3.32374837101e-12
3.08069757976e-12
4.55395384406e-13
2.98509259565e-12
2.38952685833e-11
3.64260355702e-12
4.5525551022e-13
4.5525551022e-13
4.5525551022e-13
3.64232380865e-12
4.55325441942e-13
2.75189553113e-11
4.55325441942e-13
2.47861885287e-11
2.24456688432e-11
2.41788093458e-11
2.64692310038e-12
2.43867431741e-11
3.64260355702e-12
3.64260355702e-12
2.77130833084e-11
2.27624691441e-10
2.29777970583e-10
4.5288857503e-13
3.64260355702e-12
1.86526318982e-09
1.49224375398e-08
1.49226796724e-08
1.83791899366e-09
1.8074154108e-09
1.80996987165e-09
1.8304520672e-09
1.83986215831e-09
1.84327885292e-09
1.83042450555e-09
2.92093413577e-11
2.73581565025e-11
3.06823471829e-12
2.30111619008e-10
1.8728257981e-09
2.30791643957e-10
2.33589370887e-10
2.43845380192e-11
3.64232380865e-12
2.25317188756e-10
2.24874933685e-10
3.64232380865e-12
2.26882511186e-10
2.96462935352e-12
2.54707794926e-11
2.30093803552e-10
2.31202490176e-10
2.69661641638e-11
2.28332412031e-10
2.56144907975e-11
2.69743502102e-11
3.64260355702e-12
3.64204408176e-12
2.10154238147e-10
2.22231387529e-10
2.15212177898e-10
4.5525551022e-13
3.06838125609e-12
2.2999972488e-10
2.21294133674e-10
2.70746261745e-11
2.22929363686e-10
1.85644386742e-09
2.32803199789e-10
1.8550326544e-09
1.84140617198e-09
1.83624302763e-09
1.85956446624e-09
1.85830824078e-09
1.4869522571e-08
1.48221516591e-08
1.48895280329e-08
1.48432498155e-08
1.48888996797e-08
1.48736751918e-08
2.79231473817e-11
2.23364004566e-10
2.18629527553e-10
2.40389166514e-11
2.69109561096e-11
2.24992063119e-10
2.30435037805e-11
2.30967697065e-10
2.71580207482e-11
2.22365425969e-10
2.46518035424e-11
2.66189540795e-11
2.67829660554e-11
2.80644695612e-11
2.69390193302e-11
4.52125322652e-13
4.65517370519e-13
4.55395384406e-13
4.55325441942e-13
3.64260355702e-12
2.73260234933e-11
2.78858877251e-11
2.24760926246e-10
4.51680193482e-13
4.55491125135e-13
3.64260355702e-12
2.2552349399e-10
2.2342185645e-10
2.22884536287e-10
3.64260355702e-12
4.5525551022e-13
2.81411458694e-11
2.20371001145e-10
2.22200108729e-10
4.51680193482e-13
4.52783605995e-13
1.90248222654e-09
1.86877648447e-09
1.88955509966e-09
1.87621754135e-09
1.87262621471e-09
1.86306519727e-09
1.88315023673e-09
1.86314422573e-09
1.85443820841e-09
1.87405048558e-09
1.87111515673e-09
1.8457239766e-09
1.86316424624e-09
1.8549550606e-09
1.82207768287e-09
1.84589750132e-09
1.80677923484e-09
1.82985132261e-09
1.85736307675e-09
1.84711090264e-09
1.83718004205e-09
1.79205402766e-09
1.82862198144e-09
1.79166275761e-09
1.823919801e-09
1.82731613135e-09
1.82484320904e-09
1.83707711019e-09
2.91500887521e-11
3.28877889859e-12
2.36163872643e-11
2.13761588683e-10
2.29413659572e-10
2.80329439869e-11
2.2093104831e-10
2.88910209588e-11
3.64260355702e-12
2.77398946421e-12
2.78403576099e-11
2.88480112375e-11
4.55395384406e-13
2.02738871426e-11
2.53764584955e-12
2.64904676954e-11
2.30514210924e-10
2.30366305513e-10
2.48116846529e-11
2.33351891511e-10
2.46837580103e-11
2.49873108744e-11
2.0442123245e-11
2.21070152753e-11
2.89172994346e-11
2.23269449389e-11
2.15041546942e-11
3.05273635705e-11
2.38834854342e-11
2.26347840465e-10
2.29861003165e-10
3.64232380865e-12
2.27269221895e-10
2.37926181433e-11
2.26478321083e-10
2.28655717385e-10
2.29624674884e-11
2.26707047925e-10
2.50423705548e-11
2.40395346513e-11
2.31136168341e-11
2.3141789031e-10
2.30265872948e-10
2.27584558605e-10
2.46905716212e-11
2.55071941061e-11
2.28204835267e-10
2.20393756248e-10
2.49363661086e-11
2.28872378589e-11
2.25932867587e-10
2.64200649991e-11
2.53064806343e-11
2.29268350769e-10
2.26253236955e-10
2.47773815526e-11
2.26900411254e-10
2.50275894372e-11
2.33722886169e-11
2.47180739638e-11
2.30043548501e-11
2.17622192864e-10
2.21261367158e-10
2.2682812413e-11
2.23842152199e-10
2.39187633332e-11
3.64260355702e-12
2.11221659533e-10
2.20128745276e-10
2.78565585375e-11
2.10395535775e-10
3.64232380865e-12
2.59300716947e-11
3.64260355702e-12
2.25544789249e-10
2.25564336559e-10
2.48579573097e-11
2.18802573446e-10
2.33425407062e-11
2.31112937383e-11
3.64260355702e-12
2.32485083862e-11
2.17043883133e-10
2.170918915e-10
2.11683373269e-10
2.55442443284e-11
2.34897534009e-11
4.55325441942e-13
3.08619820639e-12
3.64232380865e-12
3.64260355702e-12
2.29000987756e-10
2.52757293873e-11
2.71025440768e-11
3.64267730927e-12
3.64276123612e-12
3.64267730927e-12
3.64276123612e-12
3.64264933365e-12
3.64254760735e-12
3.1457024032e-12
3.64264933365e-12
3.64264933365e-12
2.41748006238e-11
2.39625823437e-11
4.55325441942e-13
4.55325441942e-13
2.42895274251e-11
2.39719206135e-11
4.55325441942e-13
2.32764018955e-11
4.67978430927e-13
4.5525551022e-13
2.33160458112e-11
2.3919351433e-11
4.67419127532e-13
2.25118482468e-11
2.3511703701e-11
3.36730838089e-12
4.55325441942e-13
2.29637891166e-11
2.3892413958e-11
4.55325441942e-13
2.26344636308e-11
2.38813893292e-11
2.85009497839e-11
2.69727333849e-11
2.90271012872e-11
2.64794504521e-12
2.52669421907e-12
2.83007881774e-12
2.29258010193e-11
2.93309004208e-11
3.01604178725e-11
2.61848966032e-12
2.98398487589e-12
3.31641050745e-12
3.6424255287e-12
2.78106898974e-12
2.8291553095e-12
2.4554258399e-12
4.65581740712e-13
2.84446831195e-12
2.69590245852e-12
2.83442083886e-12
2.7128116636e-12
2.83050584787e-12
2.84535266751e-12
2.98426639167e-12
2.81363092308e-12
4.55325441942e-13
3.6424255287e-12
2.69784587766e-12
3.64254760735e-12
3.64257558218e-12
4.678844575e-13
4.67472821727e-13
4.5161082162e-13
4.5525551022e-13
4.5161082162e-13
4.51749576e-13
4.36282985088e-13
4.51680193482e-13
4.55325441942e-13
4.55508470764e-13
4.5525551022e-13
4.5525551022e-13
4.5525551022e-13
3.64260355702e-12
4.55395384406e-13
4.55325441942e-13
3.64232380865e-12
4.55325441942e-13
4.55325441942e-13
4.55325441942e-13
4.67419127532e-13
3.64255110286e-12
4.36200134877e-13
4.55508470764e-13
4.67472821727e-13
4.51680193482e-13
4.54099504204e-13
4.5161082162e-13
4.52125322653e-13
3.64260355702e-12
4.6546765783e-13
4.51680193482e-13
2.49872451912e-12
4.65535504905e-13
2.89621879848e-12
2.85053181173e-12
2.6130755697e-12
4.5525551022e-13
4.52826432713e-13
4.5525551022e-13
2.19849471485e-11
2.27006897284e-11
2.47315397823e-12
2.8212789473e-12
2.83361217242e-12
2.66835839127e-12
2.43283514537e-12
2.8287797741e-12
2.6243098564e-12
2.92721295457e-12
2.79270042273e-12
2.60211074495e-12
2.89011359798e-12
2.9937714164e-12
2.74740957155e-12
2.19916140478e-12
2.72710200147e-12
2.83598017643e-12
2.37655465691e-12
2.76157889263e-12
2.88472236003e-12
2.75233685569e-12
3.64260355702e-12
3.64260355702e-12
3.64260355702e-12
4.55325441942e-13
4.55325441942e-13
4.55325441942e-13
3.64260355702e-12
4.5525551022e-13
3.64260355702e-12
3.64260355702e-12
4.55325441942e-13
3.64260355702e-12
3.64260355702e-12
3.16211745513e-12
3.64232380865e-12
3.64232380865e-12
3.64260355702e-12
3.64260355702e-12
3.64204408176e-12
3.64232380865e-12
3.05345795263e-12
3.64260355702e-12
2.98922617208e-12
3.64260355702e-12
3.41543020648e-12
2.79318341811e-12
3.64232380865e-12
3.38570472471e-12
2.84894722733e-12
2.79221052583e-12
3.18112419015e-12
3.64260355702e-12
3.64260355702e-12
3.64260355702e-12
3.07293520853e-12
3.35968891337e-12
3.64260355702e-12
3.17605885079e-12
3.64232380865e-12
3.64232380865e-12
3.16089840779e-12
3.18628885381e-12
3.64232380865e-12
3.64260355702e-12
3.64260355702e-12
3.64260355702e-12
2.76768092367e-12
2.71317479565e-12
2.86597341385e-12
2.3076490357e-11
2.34845200263e-11
2.3789463149e-11
2.73258738254e-12
2.3069210782e-11
2.93956790942e-12
2.59324534812e-12
2.40190984292e-11
2.37544917794e-11
2.81433202708e-12
3.15353882138e-12
2.85228005909e-12
2.82875306499e-12
3.27994080657e-12
2.83975557795e-12
2.77957652458e-12
2.82590231313e-12
2.85251583875e-12
3.40192591046e-12
3.64260355702e-12
2.91597400208e-12
2.94237544111e-12
2.73764554675e-12
2.87220556749e-12
2.67420979123e-12
2.58044873387e-12
2.84030614822e-12
2.98779747405e-12
2.60813971895e-12
2.86762503009e-12
2.5891321585e-12
2.68464381724e-12
2.8184556635e-12
3.64260355702e-12
3.64260355702e-12
4.55395384406e-13
2.96419222538e-12
3.64232380865e-12
3.64204408176e-12
3.21049728722e-12
3.03934650342e-12
3.64232380865e-12
3.64232380865e-12
3.64260355702e-12
4.55325441942e-13
4.5525551022e-13
4.5525551022e-13
4.5525551022e-13
4.5525551022e-13
4.5525551022e-13
4.5525551022e-13
4.5525551022e-13
4.67419127532e-13
4.5525551022e-13
4.5525551022e-13
4.5525551022e-13
4.5525551022e-13
4.55325441942e-13
3.64260355702e-12
3.07854726474e-12
4.55325441942e-13
2.63164929206e-12
2.69951030458e-12
2.30267509382e-11
2.36717704077e-11
2.66886604909e-12
2.40355173039e-11
3.02223678001e-12
2.59078402116e-11
2.76895125382e-12
2.52681632002e-11
1.85581836003e-09
1.85966354231e-09
1.8598854754e-09
2.69869256141e-11
2.37639940269e-10
2.33254443545e-10
2.28322244207e-10
2.36108292605e-10
2.35554606627e-10
2.64074736635e-11
2.21471903748e-10
2.2550676614e-10
2.28446384903e-10
2.26053597888e-10
2.83209333256e-11
2.31752575877e-10
2.74375268893e-11
2.32723776317e-10
2.81086298514e-11
2.51825397568e-11
2.27099673228e-10
2.1919182734e-10
2.25979275072e-10
2.24284076721e-10
2.30699775386e-11
2.37498592734e-10
2.28778328951e-10
2.37469586713e-10
2.41964910112e-11
2.56665307923e-11
2.66454533561e-11
2.34214849496e-11
2.62557794524e-11
2.47856813172e-11
2.30344289576e-11
2.51533448992e-11
2.35752456154e-10
2.81186045571e-11
2.90700147213e-11
2.62817576556e-11
2.35062986104e-10
2.29878564387e-10
2.32585015302e-10
2.26478580259e-10
2.82068274697e-11
2.33534567157e-10
2.33864788391e-10
2.38201547382e-10
2.37860296677e-10
2.40056648418e-10
2.4030361981e-10
2.37470125526e-10
2.37114103206e-10
2.74261303752e-11
2.38783110737e-10
2.33044644521e-10
2.36528692582e-10
2.45068511686e-11
2.37416819831e-10
4.51699468646e-13
4.67468554144e-13
4.55448680388e-13
4.55379381651e-13
2.86603233465e-12
2.59041376199e-11
2.32341883903e-11
2.37442708538e-11
2.3401788819e-11
2.70031966821e-11
2.64695516233e-11
2.65519368553e-11
2.37185444402e-11
2.36111473947e-11
3.64267730927e-12
2.90439247848e-12
3.64257558218e-12
2.94213176558e-12
3.64276123612e-12
2.25426042484e-11
3.65476841974e-12
2.29901105522e-11
3.25463685423e-12
4.65517370519e-13
2.18728805525e-11
2.24404625784e-11
3.50975774529e-12
3.09662508603e-12
3.64232380865e-12
3.64260355702e-12
3.36261773333e-12
3.24098448511e-12
3.64260355702e-12
3.64263746631e-12
4.5161082162e-13
4.55325441942e-13
3.64235771533e-12
3.64235771533e-12
4.67890455773e-13
3.64263746631e-12
2.85373922198e-11
2.74322761778e-11
2.32179834059e-10
2.3362148022e-10
2.21230689782e-10
2.26854323672e-10
2.25527827684e-10
2.28208719612e-10
2.25916628087e-10
2.28717390072e-10
2.2599196191e-10
2.58002020078e-11
2.8392935286e-12
2.50248346471e-11
3.18589113926e-12
2.85074482843e-12
2.36990601615e-11
2.24442544164e-11
2.47677662512e-12
2.86395838285e-12
2.37924296235e-10
2.38072949736e-10
2.3857881575e-10
2.39885112714e-11
2.29888605897e-11
4.18034063358e-13
4.16726418039e-13
4.5531696462e-13
4.552470342e-13
4.552470342e-13
4.65472898975e-13
2.30427748761e-11
2.58860194762e-11
2.57698825983e-11
2.32117035467e-11
2.28369043581e-11
2.60577764047e-11
2.33690628279e-11
4.552470342e-13
4.5531696462e-13
4.552470342e-13
4.5531696462e-13
2.32764499354e-11
2.27345178421e-11
2.62994922892e-11
2.71672186845e-11
2.28783756886e-11
2.66408136649e-11
2.4352013159e-11
4.5531696462e-13
4.552470342e-13
4.552470342e-13
4.5531696462e-13
4.65524502655e-13
4.65451259931e-13
3.64235771533e-12
4.55325441942e-13
4.552470342e-13
4.18017719344e-13
4.5531696462e-13
4.55279244638e-13
4.63013350465e-13
3.64254760735e-12
3.64264255179e-12
3.64253065296e-12
4.55283482909e-13
4.55307217067e-13
4.16733853983e-13
4.67851421647e-13
4.56074528358e-13
4.5160658361e-13
4.55321203281e-13
4.51675954821e-13
4.36229988412e-13
4.51680193482e-13
4.55325441942e-13
4.55384603283e-13
4.52177155864e-13
4.5161082162e-13
4.5525551022e-13
4.55325441942e-13
4.55325441942e-13
4.55325441942e-13
4.55395384406e-13
4.5160658361e-13
3.64260355702e-12
3.64260355702e-12
4.55504228685e-13
4.5525551022e-13
4.55395384406e-13
4.55325441942e-13
4.5222574084e-13
4.5525551022e-13
4.55325441942e-13
2.24016862967e-11
2.33867899381e-12
4.5525551022e-13
2.77250596789e-12
2.5200252251e-12
2.55881653917e-12
2.20962293118e-11
2.50109062059e-11
2.51934671467e-11
2.65864358558e-12
3.64232380865e-12
2.61824142408e-11
2.49031358466e-12
2.90800934869e-12
4.5525551022e-13
2.74636282585e-12
2.47914812856e-12
2.54061474584e-11
4.5525551022e-13
2.88348993088e-12
4.5525551022e-13
4.55325441942e-13
4.65517370519e-13
4.51680193482e-13
4.16760255485e-13
4.5525551022e-13
4.55508470764e-13
4.65466049462e-13
4.5525127221e-13
4.52783605995e-13
2.25866495108e-11
4.5525551022e-13
2.45287913842e-11
2.36703264474e-11
2.2204129892e-11
3.64232380865e-12
2.55348336783e-11
2.60833108036e-12
2.40899038204e-12
2.96104014407e-12
2.64166501793e-12
2.254704576e-11
3.64260355702e-12
3.64263746631e-12
4.5161082162e-13
3.64235771533e-12
4.51680193482e-13
3.64235771533e-12
3.64263746631e-12
4.52177155864e-13
4.5525551022e-13
3.08423329858e-12
3.64232380865e-12
2.75291350746e-12
3.64260355702e-12
3.64258660238e-12
3.64258660238e-12
3.39284064799e-12
3.376784025e-12
3.12204025805e-12
3.64258660238e-12
3.64258660238e-12
4.55321203281e-13
3.64232380865e-12
4.5525127221e-13
3.64260355702e-12
3.64232380865e-12
4.5525127221e-13
4.55321203281e-13
4.5525551022e-13
4.55325441942e-13
4.5525551022e-13
4.52173902703e-13
3.64260355702e-12
4.55325441942e-13
4.16743135459e-13
4.55325441942e-13
4.5160658361e-13
4.5160658361e-13
3.64260355702e-12
3.64232380865e-12
4.51675954821e-13
3.64232380865e-12
4.5543429614e-13
4.51675954821e-13
4.55321203281e-13
3.64232380865e-12
4.5525127221e-13
3.64260355702e-12
3.64232380865e-12
4.55321203281e-13
4.5525127221e-13
4.5525127221e-13
3.64232380865e-12
3.64260355702e-12
4.52815062221e-13
4.51675954821e-13
3.64260355702e-12
4.36247717685e-13
3.64232380865e-12
3.64260355702e-12
4.51675954821e-13
4.5160658361e-13
4.55321203281e-13
4.55321203281e-13
3.64260355702e-12
3.64260355702e-12
3.64260355702e-12
4.5525127221e-13
4.55391145094e-13
3.64258660238e-12
3.64258660238e-12
2.9758114904e-12
3.29701804655e-12
3.27887280435e-12
3.64258660238e-12
3.64258660238e-12
4.5525127221e-13
3.64260355702e-12
4.51745336688e-13
3.64260355702e-12
3.64260355702e-12
4.65586291733e-13
4.52833553798e-13
4.55321203281e-13
3.64260355702e-12
3.64260355702e-12
4.55321203281e-13
3.64260355702e-12
4.5525127221e-13
4.55391145094e-13
4.55321203281e-13
3.64260355702e-12
3.64260355702e-12
4.55321203281e-13
3.64260355702e-12
4.55391145094e-13
4.67414814006e-13
4.55321203281e-13
3.64260355702e-12
4.5525127221e-13
3.64232380865e-12
3.64232380865e-12
4.5525127221e-13
4.55321203281e-13
3.64258660238e-12
3.29516290449e-12
3.64230685531e-12
2.92445655306e-12
2.93792027392e-12
3.64258660238e-12
3.64230685531e-12
4.55325441942e-13
4.55325441942e-13
4.5525551022e-13
4.51675954821e-13
3.64260355702e-12
3.64260355702e-12
4.55321203281e-13
3.64260355702e-12
4.56127695495e-13
4.67833532798e-13
4.5525551022e-13
4.5525551022e-13
4.5525551022e-13
4.5525551022e-13
4.5525551022e-13
4.5525551022e-13
4.67419127532e-13
4.55455880534e-13
4.55321454784e-13
4.5525551022e-13
3.64260355702e-12
3.64204408176e-12
4.5160658361e-13
4.5525551022e-13
4.5160658361e-13
4.5160658361e-13
4.55321454784e-13
4.55325441942e-13
4.5525551022e-13
4.5525551022e-13
4.19973070737e-13
4.5525127221e-13
4.55325441942e-13
4.55321203281e-13
3.64232380865e-12
3.64230685531e-12
3.64260355702e-12
4.56649278769e-13
2.97605872416e-12
2.58353174666e-11
2.45483825657e-12
3.64260355702e-12
2.83286032452e-11
2.64471853653e-11
2.96638601632e-12
3.21468648529e-12
2.92684786088e-11
2.70496302779e-11
2.47292013914e-11
3.64260355702e-12
3.64260355702e-12
2.40653384547e-11
2.63142735866e-11
2.66626551292e-11
3.14736621356e-12
3.64260355702e-12
2.29052431584e-11
2.3236674281e-11
2.57000420375e-11
3.12425173031e-12
3.1984863362e-12
2.56316410832e-11
3.64260355702e-12
3.64260355702e-12
2.77977993546e-11
2.68301639239e-11
2.72786194487e-11
3.12840737911e-12
2.72475520583e-11
2.83358452999e-12
2.68020092286e-12
2.68245810962e-11
2.65958130423e-11
2.42733417109e-11
2.45177670595e-11
3.04566180153e-12
2.67051627176e-11
2.72755231572e-11
2.71517138494e-11
2.72662213849e-11
2.59641417592e-11
3.64232380865e-12
3.64260355702e-12
3.64260355702e-12
2.59939300539e-11
2.62490211562e-11
2.60741742608e-11
2.93524234259e-12
3.64232380865e-12
3.4026461246e-12
2.59599554402e-11
2.60119942615e-11
2.61439148487e-11
2.6239783459e-11
2.4110290376e-11
3.64260355702e-12
3.38940461755e-12
2.60250682759e-11
2.62777972269e-11
2.58782550927e-11
2.67907743592e-11
3.64260355702e-12
3.64260355702e-12
3.64260355702e-12
2.55037446067e-11
2.500251232e-11
2.44610236225e-11
2.53985226299e-11
2.53125553366e-11
3.64232380865e-12
3.64232380865e-12
2.42186150004e-11
3.64260355702e-12
2.56503969457e-11
2.6058096463e-11
3.64255149149e-12
3.64232380865e-12
2.33463527143e-11
2.37414899743e-11
3.64260355702e-12
2.45218492589e-11
2.36092564337e-11
3.64260355702e-12
3.64232380865e-12
3.64260355702e-12
2.57957826502e-11
2.57148938246e-11
2.58819631618e-11
2.54322108616e-11
3.23979064976e-12
3.64267730927e-12
3.20229043076e-12
2.72178558093e-12
3.63912849523e-12
3.64264933365e-12
3.41963705397e-12
3.41209197365e-12
2.75570489795e-12
2.96782631043e-12
2.69369283161e-12
3.02075498439e-12
2.71502973321e-12
4.51680193482e-13
2.4156042227e-11
2.44802847607e-11
4.5161082162e-13
2.66094193511e-12
2.74219289989e-12
3.05379018126e-12
2.43509921208e-11
3.04849387976e-12
2.71713642537e-12
4.5525551022e-13
1.97427764037e-12
3.28242885145e-12
4.56130846418e-13
4.55395384406e-13
3.39954180157e-12
4.51680193482e-13
1.03343755738e-12
3.33871196233e-12
4.55325441942e-13
4.55325441942e-13
3.32044875522e-12
4.67419127532e-13
2.49853026554e-11
2.48685310508e-11
1.98752344842e-12
2.62693462505e-11
2.46572669781e-11
3.21735419842e-12
2.56594541392e-12
2.82991952278e-12
2.78143071152e-12
2.43374585829e-11
3.47967321314e-12
4.67890455773e-13
2.59443351749e-12
2.79156247668e-12
2.391230893e-11
2.38662792187e-11
3.39957448383e-12
2.20873026796e-11
4.16760066113e-13
2.68092560503e-12
2.34314003399e-11
2.69681228619e-12
2.37352772677e-11
3.357431039e-12
3.64260355702e-12
3.64232380865e-12
3.64232380865e-12
2.59855551353e-11
2.39789382545e-11
2.59708909592e-11
2.45841876673e-11
2.99339612959e-12
3.64260355702e-12
2.58240936505e-11
2.60696385378e-11
3.64260355702e-12
3.18732423314e-12
3.64232380865e-12
2.59897997924e-11
2.59977729947e-11
2.62635125218e-11
2.58118711279e-11
3.64260355702e-12
3.64260355702e-12
2.60324872613e-11
2.58927232847e-11
4.5525551022e-13
3.64232380865e-12
4.5525551022e-13
2.47231562639e-11
2.41094758756e-11
2.44539576463e-11
2.40098713948e-11
4.56130846418e-13
4.55395384406e-13
2.50269350904e-11
2.49374371584e-11
4.65588432549e-13
4.55508470764e-13
2.58231073793e-12
4.55325441942e-13
2.47756768426e-11
2.43324782818e-11
2.43269797267e-11
3.64260355702e-12
3.64232380865e-12
2.44297328938e-11
2.47488447664e-11
4.52125322652e-13
4.16760255485e-13
2.95004266495e-12
2.53196966293e-11
2.62538277772e-11
2.88464025871e-12
2.59368532088e-11
3.03279212968e-12
2.89827267348e-12
3.2336078834e-12
1.99758351878e-11
2.55624951614e-11
2.34794408942e-11
2.22992262625e-12
2.42390855589e-11
2.67395994204e-12
2.18801301931e-12
2.25204873835e-11
2.94465741576e-11
2.83119926194e-11
2.15292960194e-11
2.50161843323e-11
2.46016502676e-11
2.16246892853e-11
2.64438946675e-11
2.54815814445e-11
2.78921597225e-11
2.84912775941e-11
2.82213851592e-11
2.16324195209e-11
2.16738521369e-11
2.26102523275e-11
2.66478971171e-11
2.65722363712e-11
2.7977105192e-11
2.97961758942e-11
3.00055235857e-11
2.83415105023e-11
3.11231375115e-11
2.96877624326e-11
2.83033457723e-11
2.86401803331e-11
2.43330664972e-11
2.3103609127e-11
2.3873861536e-11
2.69067973856e-11
2.68767643168e-11
2.71520148923e-11
2.66711709973e-11
2.37270180029e-11
2.37820510453e-11
2.71002396086e-11
2.69278068829e-11
2.40439992546e-11
2.89785350851e-12
2.41978372318e-11
2.71282803937e-11
2.5933171683e-11
2.66868440995e-11
2.65195451157e-11
2.26848257797e-11
2.310618581e-11
2.66575365835e-11
2.66659797415e-11
2.32868088212e-11
2.41414050965e-11
2.33265252963e-11
2.66899558142e-11
2.68271861672e-11
2.69325258406e-11
2.68197381303e-11
2.35912103723e-11
2.30559860498e-11
2.30146541669e-11
2.67130682203e-11
2.71317271248e-11
2.69970369886e-11
2.68523965344e-11
2.43635055592e-11
2.35750298642e-11
2.38271804248e-11
2.67681953687e-11
2.69074481686e-11
2.71184325852e-11
2.69446480963e-11
2.36677278191e-11
2.35683633011e-11
2.46892869299e-11
2.72470933582e-11
2.67397910726e-11
2.68571320038e-11
2.69428739728e-11
2.38840395798e-11
2.40936779171e-11
2.51478769792e-11
2.70303285264e-11
2.56931546777e-11
2.61035132417e-11
2.65631026719e-11
2.49240087534e-11
2.29617068947e-11
2.42486239921e-11
2.71467252708e-11
2.75452674446e-11
2.73836615245e-11
2.72250777193e-11
2.31130125882e-11