/*--------------------------------*- C++ -*----------------------------------*\
| =========                 |                                                 |
| \\      /  F ield         | OpenFOAM: The Open Source CFD Toolbox           |
|  \\    /   O peration     | Version:  2406                                  |
|   \\  /    A nd           | Website:  www.openfoam.com                      |
|    \\/     M anipulation  |                                                 |
\*---------------------------------------------------------------------------*/
FoamFile
{
    version     2.0;
    format      ascii;
    arch        "LSB;label=32;scalar=64";
    class       volScalarField;
    location    "0.01";
    object      k_0;
}
// * * * * * * * * * * * * * * * * * * * * * * * * * * * * * * * * * * * * * //

dimensions      [0 2 -2 0 0 0 0];

internalField   nonuniform List<scalar> 
29767
(
0.237441098967
0.239885351794
0.239956451009
0.239959662936
0.239959801742
0.239959806149
0.239959806221
0.23995980619
0.239959806169
0.239959806156
0.239959806146
0.239959806141
0.239959806162
0.239959806948
0.239959826891
0.237441079275
0.239885323097
0.239956429492
0.239959642982
0.23995978191
0.239959786322
0.239959786394
0.239959786363
0.239959786342
0.239959786329
0.239959786319
0.239959786314
0.239959786335
0.239959787118
0.239959807006
0.237441079366
0.239885322628
0.239956428716
0.239959642201
0.239959781131
0.239959785542
0.239959785614
0.239959785583
0.239959785562
0.239959785549
0.239959785538
0.239959785533
0.239959785554
0.239959786337
0.239959806222
0.237441079451
0.239885322624
0.2399564287
0.239959642181
0.239959781112
0.239959785522
0.239959785594
0.239959785562
0.239959785541
0.239959785528
0.239959785518
0.239959785513
0.239959785533
0.239959786316
0.239959806201
0.237441079771
0.239885322625
0.239956428716
0.239959642189
0.239959781121
0.239959785529
0.239959785601
0.239959785568
0.239959785547
0.239959785534
0.239959785523
0.239959785518
0.239959785539
0.239959786322
0.239959806206
0.237441079888
0.239885322634
0.239956428731
0.2399596422
0.239959781134
0.23995978554
0.239959785612
0.239959785579
0.239959785558
0.239959785544
0.239959785534
0.239959785528
0.239959785549
0.239959786332
0.239959806217
0.237441080736
0.239885322644
0.239956428771
0.239959642221
0.239959781156
0.239959785556
0.239959785629
0.239959785594
0.239959785572
0.239959785558
0.239959785547
0.239959785541
0.239959785562
0.239959786345
0.239959806229
0.237441080729
0.239885322655
0.239956428794
0.239959642242
0.23995978118
0.239959785578
0.239959785651
0.239959785615
0.239959785594
0.239959785579
0.239959785569
0.239959785563
0.239959785583
0.239959786366
0.239959806251
0.237441083045
0.239885322707
0.239956428894
0.239959642293
0.239959781236
0.239959785619
0.239959785692
0.239959785651
0.239959785629
0.239959785612
0.239959785601
0.239959785594
0.239959785614
0.239959786397
0.239959806281
0.237441082314
0.239885322678
0.239956428836
0.23995964222
0.239959781162
0.239959785545
0.239959785619
0.239959785578
0.239959785557
0.23995978554
0.239959785529
0.239959785522
0.239959785543
0.239959786325
0.23995980621
0.237441088683
0.239885322602
0.239956425388
0.239959637919
0.239959776819
0.239959781162
0.239959781236
0.23995978118
0.239959781157
0.239959781134
0.239959781121
0.239959781112
0.239959781131
0.239959781913
0.239959801802
0.237441082504
0.239885299971
0.23995630511
0.239959500292
0.239959637927
0.239959642227
0.239959642301
0.23995964225
0.239959642229
0.239959642208
0.239959642197
0.239959642189
0.239959642209
0.239959642993
0.239959663004
0.237440921597
0.239884263076
0.239953361222
0.239956305207
0.239956425495
0.239956428943
0.239956429002
0.239956428902
0.239956428879
0.239956428838
0.239956428824
0.239956428808
0.239956428824
0.239956429602
0.239956451173
0.237433281103
0.239840922367
0.239884263418
0.239885300432
0.239885323068
0.239885323144
0.239885323173
0.239885323121
0.23988532311
0.239885323101
0.239885323092
0.23988532309
0.239885323094
0.239885323563
0.23988535227
0.237409485755
0.237433281239
0.237440921795
0.237441082707
0.237441088888
0.237441082517
0.237441083247
0.237441080931
0.237441080937
0.237441080089
0.237441079979
0.237441079659
0.237441079565
0.237441079473
0.23744109915
0.237417993093
0.239879333008
0.239954225262
0.239957656256
0.239957806045
0.239957811006
0.239957811117
0.239957811116
0.239957811115
0.239957811112
0.239957811111
0.239957811111
0.239957811139
0.239957812009
0.239957833961
0.237417974667
0.23987930217
0.239954201628
0.239957634274
0.239957784193
0.239957789161
0.239957789272
0.239957789271
0.239957789269
0.239957789267
0.239957789266
0.239957789266
0.239957789293
0.23995779016
0.239957812052
0.237417974886
0.239879301668
0.239954200768
0.239957633409
0.239957783329
0.239957788297
0.239957788407
0.239957788407
0.239957788405
0.239957788403
0.239957788402
0.239957788402
0.239957788429
0.239957789295
0.239957811184
0.23741797502
0.23987930166
0.239954200743
0.239957633382
0.239957783302
0.239957788269
0.23995778838
0.239957788379
0.239957788378
0.239957788375
0.239957788374
0.239957788374
0.239957788402
0.239957789268
0.239957811156
0.237417975409
0.239879301659
0.239954200742
0.239957633382
0.239957783302
0.23995778827
0.23995778838
0.239957788379
0.239957788378
0.239957788375
0.239957788374
0.239957788374
0.239957788402
0.239957789268
0.239957811156
0.237417975593
0.23987930167
0.239954200744
0.239957633383
0.239957783303
0.239957788271
0.239957788382
0.239957788381
0.239957788379
0.239957788376
0.239957788375
0.239957788375
0.239957788403
0.239957789269
0.239957811157
0.237417976773
0.239879301675
0.239954200746
0.239957633386
0.239957783306
0.239957788274
0.239957788384
0.239957788383
0.239957788381
0.239957788379
0.239957788378
0.239957788378
0.239957788405
0.239957789271
0.23995781116
0.237417976817
0.23987930168
0.239954200748
0.239957633388
0.239957783308
0.239957788275
0.239957788386
0.239957788386
0.239957788383
0.239957788381
0.239957788379
0.239957788379
0.239957788407
0.239957789273
0.239957811161
0.237417979607
0.2398793017
0.239954200749
0.239957633389
0.239957783308
0.239957788276
0.239957788386
0.239957788386
0.239957788384
0.239957788381
0.23995778838
0.23995778838
0.239957788407
0.239957789273
0.239957811162
0.237417978904
0.239879301697
0.239954200661
0.239957633283
0.239957783198
0.239957788165
0.239957788276
0.239957788275
0.239957788274
0.239957788271
0.23995778827
0.23995778827
0.239957788297
0.239957789163
0.239957811052
0.237417986296
0.239879301355
0.239954196602
0.239957628375
0.239957778235
0.239957783199
0.239957783308
0.239957783308
0.239957783306
0.239957783304
0.239957783303
0.239957783303
0.23995778333
0.239957784196
0.239957806091
0.237417979629
0.23987927739
0.239954067339
0.239957479944
0.239957628386
0.239957633295
0.239957633401
0.2399576334
0.239957633398
0.239957633395
0.239957633394
0.239957633394
0.239957633421
0.239957634288
0.239957656313
0.237417817435
0.239878166697
0.2399509289
0.239954067476
0.239954196752
0.239954200812
0.2399542009
0.239954200899
0.239954200897
0.239954200895
0.239954200893
0.239954200893
0.23995420092
0.239954201781
0.239954225454
0.237410168869
0.239832413605
0.239878167208
0.239879278024
0.239879301987
0.239879302337
0.239879302344
0.239879302323
0.239879302315
0.23987930231
0.239879302283
0.239879302277
0.239879302308
0.239879302812
0.239879333642
0.237387159327
0.237410165739
0.23741781784
0.237417979792
0.237417986157
0.237417978962
0.237417979804
0.23741797694
0.237417976898
0.237417975784
0.237417973803
0.237417973343
0.237417975
0.237417974918
0.237417992944
0.237417899522
0.239879285037
0.239954190506
0.239957623152
0.239957773181
0.239957778142
0.239957778262
0.239957778259
0.239957778256
0.239957778253
0.239957778251
0.239957778251
0.239957778278
0.239957779151
0.239957801157
0.237417882619
0.239879254207
0.239954166825
0.239957601121
0.23995775128
0.239957756247
0.239957756366
0.239957756365
0.239957756361
0.239957756358
0.239957756357
0.239957756358
0.239957756386
0.239957757254
0.239957779198
0.237417882968
0.239879253708
0.239954165964
0.239957600254
0.239957750414
0.23995775538
0.239957755498
0.239957755498
0.239957755495
0.239957755492
0.239957755491
0.239957755492
0.23995775552
0.239957756388
0.239957778325
0.237417883193
0.239879253699
0.239954165938
0.239957600226
0.239957750386
0.239957755353
0.23995775547
0.239957755469
0.239957755466
0.239957755465
0.239957755463
0.239957755464
0.239957755492
0.239957756359
0.239957778297
0.237417883613
0.239879253694
0.239954165936
0.239957600226
0.239957750386
0.239957755352
0.23995775547
0.23995775547
0.239957755466
0.239957755464
0.239957755463
0.239957755462
0.239957755491
0.239957756359
0.239957778298
0.237417883973
0.2398792537
0.239954165938
0.239957600227
0.239957750387
0.239957755354
0.239957755472
0.239957755472
0.239957755468
0.239957755466
0.239957755464
0.239957755465
0.239957755492
0.23995775636
0.239957778299
0.237417885247
0.239879253716
0.239954165941
0.239957600229
0.239957750388
0.239957755357
0.239957755475
0.239957755474
0.23995775547
0.239957755467
0.239957755466
0.239957755466
0.239957755494
0.239957756362
0.239957778302
0.237417885093
0.239879253706
0.239954165941
0.239957600231
0.23995775039
0.239957755359
0.23995775548
0.239957755478
0.239957755474
0.23995775547
0.239957755468
0.239957755468
0.239957755496
0.239957756365
0.239957778306
0.23741788795
0.23987925374
0.239954165941
0.239957600231
0.239957750388
0.239957755358
0.239957755479
0.239957755479
0.239957755475
0.239957755471
0.239957755469
0.23995775547
0.239957755497
0.239957756366
0.239957778308
0.237417888137
0.239879253743
0.239954165845
0.239957600111
0.239957750268
0.239957755236
0.239957755358
0.239957755359
0.239957755357
0.239957755354
0.239957755352
0.239957755352
0.23995775538
0.239957756249
0.239957778189
0.237417892684
0.239879253372
0.239954161786
0.239957595207
0.239957745304
0.239957750269
0.239957750389
0.239957750391
0.239957750389
0.239957750388
0.239957750386
0.239957750387
0.239957750414
0.239957751283
0.239957773228
0.237417888345
0.239879229374
0.239954032341
0.239957446526
0.239957595218
0.239957600123
0.239957600242
0.239957600242
0.239957600241
0.239957600239
0.239957600238
0.239957600238
0.239957600266
0.239957601135
0.239957623211
0.237417716233
0.239878118251
0.239950892621
0.239954032476
0.239954161932
0.239954165993
0.239954166089
0.239954166089
0.239954166088
0.239954166085
0.239954166083
0.239954166084
0.239954166111
0.239954166975
0.239954190696
0.237410075606
0.239832358092
0.23987811873
0.239879229988
0.239879253969
0.239879254349
0.239879254348
0.239879254334
0.239879254314
0.239879254302
0.23987925426
0.239879254254
0.239879254309
0.239879254819
0.239879285655
0.237387042642
0.237410069578
0.237417716642
0.237417889052
0.237417892572
0.237417888237
0.237417888154
0.237417885773
0.237417884821
0.237417883717
0.237417880539
0.23741787997
0.237417883003
0.237417882935
0.237417900402
0.237417933632
0.239879287305
0.239954190916
0.239957623419
0.239957773452
0.23995777841
0.239957778528
0.239957778524
0.23995777852
0.239957778516
0.239957778514
0.239957778515
0.239957778542
0.239957779415
0.239957801421
0.237417919673
0.239879257603
0.239954167266
0.239957601389
0.23995775155
0.239957756513
0.23995775663
0.239957756629
0.239957756622
0.23995775662
0.239957756619
0.239957756621
0.239957756649
0.239957757518
0.239957779461
0.237417920519
0.239879257977
0.239954166413
0.239957600521
0.239957750683
0.239957755645
0.239957755761
0.239957755761
0.239957755756
0.239957755754
0.239957755752
0.239957755756
0.239957755782
0.239957756651
0.239957778585
0.237417920771
0.239879257181
0.239954166381
0.239957600493
0.239957750655
0.239957755617
0.239957755732
0.239957755731
0.239957755727
0.239957755726
0.239957755729
0.239957755731
0.239957755756
0.239957756626
0.239957778557
0.23741792073
0.239879257271
0.239954166368
0.239957600491
0.239957750654
0.239957755616
0.239957755731
0.239957755731
0.239957755725
0.239957755725
0.239957755728
0.239957755727
0.239957755756
0.239957756621
0.239957778557
0.237417921137
0.239879257611
0.239954166368
0.239957600492
0.239957750655
0.239957755618
0.239957755733
0.239957755734
0.239957755728
0.239957755726
0.239957755725
0.239957755725
0.239957755754
0.239957756621
0.239957778559
0.237417922777
0.239879257944
0.239954166389
0.239957600491
0.239957750656
0.23995775562
0.239957755737
0.239957755735
0.239957755729
0.239957755727
0.239957755725
0.239957755726
0.239957755754
0.239957756622
0.239957778562
0.237417919254
0.239879255848
0.239954166347
0.239957600491
0.239957750657
0.239957755622
0.239957755743
0.239957755741
0.239957755734
0.23995775573
0.239957755727
0.239957755728
0.239957755756
0.239957756626
0.239957778567
0.237417925634
0.239879257851
0.239954166387
0.239957600492
0.239957750651
0.239957755619
0.239957755741
0.23995775574
0.239957755736
0.239957755732
0.23995775573
0.239957755731
0.239957755759
0.239957756628
0.23995777857
0.237417925781
0.23987925722
0.23995416629
0.23995760037
0.239957750532
0.239957755494
0.239957755619
0.239957755622
0.23995775562
0.239957755618
0.239957755615
0.239957755615
0.239957755644
0.239957756514
0.239957778454
0.237417929683
0.239879257509
0.239954162223
0.239957595474
0.23995774557
0.239957750532
0.239957750652
0.239957750658
0.239957750656
0.239957750656
0.239957750655
0.239957750656
0.239957750684
0.239957751552
0.239957773496
0.237417922561
0.239879231687
0.239954032758
0.239957446791
0.239957595486
0.239957600382
0.239957600504
0.239957600504
0.239957600503
0.239957600505
0.239957600503
0.239957600505
0.239957600533
0.239957601403
0.239957623476
0.237417753285
0.239878122344
0.239950893196
0.239954032938
0.239954162372
0.239954166452
0.239954166537
0.239954166545
0.239954166543
0.239954166519
0.239954166509
0.239954166511
0.239954166555
0.239954167426
0.239954191119
0.237410111367
0.239832365382
0.239878121518
0.23987923427
0.239879258181
0.239879258649
0.239879257878
0.239879258632
0.239879258565
0.239879257212
0.23987925695
0.239879256733
0.239879257984
0.239879259112
0.239879288172
0.23738708413
0.237410100399
0.237417753504
0.23741792686
0.237417929863
0.237417926201
0.2374179259
0.237417923497
0.237417918883
0.237417919484
0.237417914628
0.237417914037
0.237417920056
0.237417920516
0.237417936962
0.237417923902
0.239879287378
0.239954190438
0.239957622723
0.23995777276
0.239957777714
0.23995777784
0.239957777839
0.239957777838
0.239957777835
0.239957777833
0.239957777836
0.239957777865
0.239957778736
0.239957800736
0.237417890348
0.239879257612
0.239954166713
0.239957600692
0.239957750855
0.239957755818
0.23995775594
0.239957755939
0.239957755938
0.239957755938
0.239957755939
0.239957755939
0.239957755966
0.239957756835
0.239957778775
0.237417898456
0.239879257521
0.239954165677
0.239957599809
0.239957749987
0.239957754948
0.239957755074
0.239957755073
0.239957755072
0.239957755074
0.239957755089
0.239957755089
0.239957755103
0.239957755982
0.239957777905
0.237417898703
0.23987925721
0.239954166336
0.239957599807
0.23995774996
0.239957754919
0.239957755043
0.239957755045
0.239957755047
0.239957755062
0.239957755247
0.239957755281
0.239957755117
0.239957756148
0.239957777894
0.237417886877
0.239879257284
0.239954166338
0.239957599807
0.239957749959
0.239957754918
0.239957755043
0.239957755044
0.239957755046
0.23995775506
0.239957755234
0.239957755281
0.23995775525
0.239957755968
0.239957777876
0.237417887564
0.239879257096
0.23995416578
0.239957599794
0.23995774996
0.239957754922
0.239957755045
0.239957755044
0.239957755044
0.239957755048
0.239957755061
0.239957755064
0.23995775509
0.239957755945
0.239957777883
0.237417899382
0.239879257351
0.239954165632
0.239957599784
0.239957749961
0.239957754921
0.239957755045
0.239957755045
0.239957755044
0.239957755047
0.239957755047
0.239957755048
0.239957755076
0.23995775595
0.239957777965
0.237417908434
0.23987925592
0.239954166055
0.239957599793
0.239957749964
0.239957754922
0.239957755048
0.239957755048
0.239957755045
0.239957755044
0.239957755046
0.239957755047
0.239957755075
0.239957755941
0.239957777885
0.237417900349
0.239879257871
0.23995416567
0.239957599782
0.239957749961
0.239957754922
0.239957755048
0.239957755053
0.239957755046
0.239957755044
0.239957755041
0.239957755042
0.23995775507
0.23995775594
0.23995777788
0.237417901741
0.23987925724
0.239954166242
0.2399575997
0.239957749836
0.239957754795
0.239957754922
0.239957754923
0.239957754921
0.239957754921
0.239957754918
0.239957754918
0.239957754947
0.239957755818
0.239957777754
0.237417878312
0.239879257463
0.239954162212
0.239957594979
0.239957744912
0.239957749836
0.239957749962
0.239957749964
0.239957749962
0.23995774996
0.239957749959
0.23995774996
0.239957749988
0.239957750857
0.239957772801
0.237417909542
0.23987923175
0.239954032729
0.239957446354
0.239957594993
0.239957599706
0.239957599793
0.239957599792
0.239957599795
0.239957599793
0.239957599792
0.239957599792
0.23995759982
0.239957600692
0.239957622792
0.237417707911
0.239878121651
0.239950892694
0.239954032881
0.239954162358
0.239954166401
0.239954165812
0.239954165763
0.239954165764
0.239954165769
0.23995416599
0.239954165835
0.239954165807
0.239954166679
0.239954191048
0.237410096467
0.239832363189
0.23987812154
0.239879233689
0.239879258173
0.239879258638
0.239879257898
0.239879257911
0.239879258177
0.23987925723
0.239879257
0.239879256789
0.239879257967
0.239879258715
0.23987928823
0.237387020558
0.237410063638
0.237417737073
0.237417898936
0.237417893476
0.23741788729
0.237417902354
0.237417897096
0.237417908505
0.237417896466
0.237417904532
0.237417904063
0.237417893104
0.237417898136
0.237417926889
0.23741793086
0.239879289758
0.239954190453
0.239957622676
0.239957772734
0.23995777769
0.239957777821
0.239957777823
0.239957777821
0.23995777782
0.23995777782
0.239957777822
0.239957777847
0.239957778719
0.23995780072
0.237417890623
0.239879258802
0.23995416661
0.239957600662
0.239957750834
0.239957755795
0.239957755926
0.239957755928
0.239957755928
0.239957755928
0.23995775593
0.239957755928
0.239957755957
0.239957756826
0.239957778765
0.237417898614
0.23987925757
0.239954165658
0.239957599784
0.239957749967
0.239957754929
0.239957755059
0.239957755061
0.239957755062
0.239957755062
0.239957755078
0.239957755077
0.239957755093
0.239957755973
0.239957777898
0.237417898862
0.23987925833
0.239954166344
0.239957599781
0.23995774994
0.239957754901
0.239957755032
0.239957755034
0.239957755035
0.239957755048
0.239957755075
0.23995775506
0.239957755099
0.239957756037
0.23995777788
0.237417887148
0.239879258298
0.23995416635
0.239957599779
0.239957749939
0.2399577549
0.239957755032
0.239957755034
0.239957755033
0.239957755045
0.239957755035
0.239957755174
0.23995775504
0.239957755951
0.239957777868
0.237417887855
0.23987925707
0.239954165477
0.23995759976
0.239957749939
0.239957754899
0.239957755031
0.239957755034
0.239957755034
0.239957755035
0.239957755043
0.23995775505
0.23995775507
0.239957755936
0.239957777876
0.237417899503
0.239879257412
0.239954165606
0.239957599755
0.239957749938
0.239957754901
0.239957755031
0.239957755034
0.239957755033
0.239957755034
0.239957755034
0.239957755035
0.239957755063
0.239957755941
0.23995777796
0.237417913429
0.239879258389
0.239954166064
0.239957599768
0.239957749937
0.2399577549
0.23995775503
0.239957755034
0.239957755034
0.239957755035
0.239957755032
0.239957755034
0.239957755062
0.239957755932
0.239957777877
0.237417900499
0.239879258357
0.239954165651
0.239957599754
0.239957749937
0.239957754896
0.239957755027
0.239957755032
0.239957755032
0.239957755034
0.239957755032
0.239957755033
0.239957755061
0.23995775593
0.239957777869
0.237417901839
0.239879258378
0.239954166251
0.239957599655
0.239957749809
0.23995775477
0.239957754896
0.239957754902
0.239957754903
0.239957754904
0.239957754903
0.239957754904
0.239957754932
0.239957755801
0.23995777774
0.237417877949
0.239879257886
0.239954162228
0.239957594818
0.239957744867
0.239957749809
0.239957749937
0.239957749938
0.239957749941
0.23995774994
0.239957749942
0.239957749942
0.239957749971
0.23995775084
0.239957772784
0.237417914467
0.239879234036
0.239954032767
0.239957446314
0.239957594853
0.23995759968
0.239957599769
0.239957599767
0.239957599766
0.239957599766
0.239957599769
0.239957599769
0.239957599799
0.239957600666
0.239957622765
0.237417708064
0.2398781217
0.239950892701
0.239954032883
0.23995416238
0.239954166402
0.239954165794
0.239954165742
0.239954165741
0.23995416577
0.239954166003
0.239954165842
0.239954165798
0.239954166645
0.239954191081
0.237410099626
0.239832362896
0.239878123257
0.23987923372
0.239879258545
0.239879258962
0.239879258998
0.239879257812
0.239879258198
0.239879258934
0.239879258951
0.239879258995
0.23987925891
0.239879258766
0.239879290395
0.2373870205
0.237410051706
0.237417738262
0.23741789909
0.237417893681
0.237417887562
0.237417902478
0.237417896935
0.237417912927
0.237417896654
0.23741791082
0.237417910383
0.237417893346
0.237417898324
0.237417931505
0.237417900902
0.239879289291
0.239954190892
0.239957623287
0.23995777341
0.239957778369
0.239957778503
0.239957778503
0.239957778498
0.239957778493
0.239957778497
0.239957778503
0.239957778523
0.239957779394
0.239957801391
0.237417908604
0.23987925689
0.239954166501
0.239957601164
0.239957751498
0.239957756476
0.239957756608
0.239957756611
0.239957756609
0.239957756606
0.239957756607
0.239957756607
0.239957756637
0.239957757505
0.239957779441
0.23741790931
0.239879258267
0.239954166329
0.239957600351
0.239957750634
0.239957755607
0.239957755737
0.239957755744
0.239957755745
0.239957755741
0.239957755721
0.239957755729
0.239957755767
0.23995775662
0.239957778571
0.237417909473
0.239879256377
0.239954165626
0.239957600303
0.239957750606
0.239957755581
0.239957755714
0.239957755715
0.23995775571
0.239957755688
0.239957755013
0.23995775502
0.239957755683
0.239957755956
0.239957778515
0.237417909251
0.239879256355
0.239954165599
0.239957600278
0.239957750602
0.239957755576
0.239957755714
0.239957755716
0.239957755708
0.239957755687
0.239957755119
0.239957755045
0.239957755094
0.239957756561
0.239957778539
0.237417909568
0.239879257723
0.239954165632
0.239957600237
0.239957750588
0.239957755484
0.239957755704
0.239957755717
0.239957755717
0.239957755706
0.239957755672
0.239957755679
0.239957755623
0.239957756599
0.239957778548
0.23741790867
0.239879258209
0.239954166324
0.239957600263
0.239957750535
0.239957755566
0.239957755712
0.239957755716
0.239957755713
0.239957755709
0.239957755706
0.239957755709
0.239957755729
0.23995775661
0.239957778553
0.237417870484
0.239879256744
0.239954166298
0.239957600395
0.239957750475
0.239957755557
0.239957755708
0.239957755715
0.239957755717
0.239957755715
0.239957755705
0.23995775571
0.239957755738
0.239957756612
0.239957778544
0.237417911629
0.239879256387
0.239954166122
0.239957600279
0.239957750565
0.239957755476
0.239957755687
0.239957755701
0.239957755714
0.239957755716
0.239957755715
0.239957755715
0.239957755743
0.239957756612
0.239957778543
0.237417910015
0.239879256396
0.23995416552
0.239957600187
0.239957750428
0.239957755406
0.239957755477
0.239957755564
0.239957755581
0.239957755576
0.239957755584
0.239957755585
0.239957755614
0.239957756481
0.239957778416
0.237417909911
0.239879255907
0.239954161435
0.239957594813
0.239957745413
0.239957750397
0.239957750574
0.239957750518
0.239957750597
0.239957750604
0.239957750614
0.239957750614
0.239957750652
0.239957751519
0.239957773445
0.237417869761
0.23987923362
0.239954032036
0.239957446051
0.239957594731
0.23995760024
0.239957600396
0.239957600402
0.23995760029
0.239957600297
0.239957600339
0.239957600382
0.239957600473
0.23995760133
0.23995762324
0.23741773077
0.239878122486
0.239950893113
0.23995403218
0.239954161593
0.239954165688
0.239954166432
0.239954166505
0.239954166499
0.239954166457
0.239954166475
0.239954166436
0.239954166492
0.239954167345
0.239954190397
0.237410051575
0.23983236313
0.239878121671
0.239879234277
0.239879256603
0.239879257008
0.239879257057
0.239879257875
0.23987925864
0.239879257024
0.239879258836
0.239879256779
0.239879257024
0.23987925947
0.239879288186
0.237387055577
0.23741005971
0.237417690127
0.237417910468
0.237417912768
0.237417912208
0.237417912136
0.237417891182
0.237417871818
0.237417907806
0.237417871271
0.237417887229
0.237417908838
0.237417909812
0.237417914095
0.237417901034
0.239879289288
0.239954190708
0.239957622734
0.239957772917
0.239957777732
0.239957777834
0.239957777835
0.239957777838
0.23995777784
0.239957777847
0.239957778026
0.239957777891
0.239957778898
0.239957800474
0.237417869466
0.239879256609
0.239954166555
0.239957600883
0.239957750884
0.239957756203
0.239957755959
0.239957755941
0.239957755956
0.239957755956
0.239957755967
0.239957756345
0.239957755992
0.239957756845
0.239957778939
0.237417869671
0.239879256128
0.239954166105
0.239957599834
0.239957749984
0.239957754958
0.23995775507
0.239957755087
0.239957755289
0.239957755315
0.23995775552
0.239957755221
0.239957755127
0.239957756087
0.239957777931
0.237417870389
0.239879256057
0.239954165594
0.239957599936
0.239957749967
0.239957754926
0.239957755043
0.239957755046
0.239957755072
0.239957755517
0.239957755114
0.239957755038
0.239957755499
0.239957755993
0.239957778459
0.23741786995
0.239879256081
0.239954165583
0.239957599894
0.239957749972
0.239957755094
0.239957755054
0.239957755046
0.239957755068
0.239957755498
0.239957755224
0.239957755102
0.239957755181
0.23995775638
0.239957777925
0.237417870177
0.239879257379
0.23995416575
0.239957600208
0.239957749997
0.239957754923
0.239957755041
0.23995775506
0.239957755247
0.239957755093
0.239957755626
0.239957755499
0.239957755194
0.239957755974
0.239957778076
0.237417880482
0.239879257891
0.239954166109
0.239957599813
0.239957749965
0.239957754912
0.239957755038
0.239957755046
0.23995775506
0.239957755047
0.239957755064
0.239957755055
0.23995775508
0.23995775596
0.239957777892
0.237417870482
0.239879256626
0.23995416564
0.239957599958
0.23995774997
0.239957754916
0.239957755045
0.239957755046
0.239957755047
0.239957755043
0.23995775504
0.239957755041
0.239957755069
0.23995775594
0.239957777875
0.237417872093
0.239879256097
0.239954165721
0.239957599784
0.239957749956
0.239957754908
0.23995775508
0.239957755057
0.239957755045
0.239957755044
0.239957755042
0.239957755041
0.239957755069
0.239957755939
0.239957777872
0.237417873315
0.239879256165
0.239954165484
0.239957599703
0.239957749971
0.239957754792
0.239957754908
0.239957754913
0.23995775491
0.239957754912
0.239957754914
0.239957754914
0.239957754942
0.239957755807
0.239957777743
0.23741787704
0.239879255741
0.239954161421
0.239957594886
0.239957744959
0.239957749898
0.239957749951
0.23995774995
0.239957749958
0.239957749952
0.239957749954
0.239957749951
0.239957749983
0.239957750849
0.239957772791
0.237417869495
0.23987923363
0.239954032003
0.239957446062
0.239957594806
0.239957600022
0.239957599813
0.239957599811
0.239957599806
0.239957599797
0.239957599811
0.239957599787
0.239957599831
0.239957600698
0.239957622954
0.237417691639
0.239878122423
0.239950892824
0.239954032132
0.239954161567
0.23995416565
0.239954166394
0.239954165799
0.239954165786
0.239954166423
0.239954166226
0.239954166186
0.239954166457
0.239954167297
0.239954190371
0.237410050906
0.239832363136
0.239878121687
0.239879233175
0.239879256323
0.239879256738
0.239879256758
0.239879257959
0.239879258416
0.239879256762
0.239879258933
0.239879256761
0.239879256726
0.239879258806
0.23987928817
0.237387012957
0.237410071292
0.237417689622
0.237417871425
0.237417873741
0.237417873165
0.237417871596
0.237417891585
0.237417870422
0.237417870624
0.237417871294
0.237417887363
0.237417869681
0.237417869551
0.237417914216
0.237417930491
0.23987929003
0.239954190711
0.239957622717
0.23995777272
0.239957777717
0.23995777782
0.239957777822
0.239957777823
0.239957777829
0.239957777827
0.239957777911
0.239957777286
0.23995777355
0.239957738554
0.237417868247
0.239879258894
0.239954167205
0.239957600834
0.239957750863
0.239957756196
0.239957755945
0.239957755929
0.239957755946
0.239957755947
0.239957755957
0.239957756312
0.239957755765
0.239957756379
0.239957772513
0.237417868352
0.23987925612
0.239954166108
0.239957599819
0.239957749973
0.239957754948
0.239957755061
0.239957755075
0.239957755202
0.239957755266
0.23995775552
0.239957754858
0.2399577551
0.239957755919
0.239957777519
0.237417868732
0.239879258363
0.239954166343
0.239957599865
0.239957749948
0.239957754912
0.239957755032
0.239957755035
0.239957755062
0.239957755519
0.239957755637
0.239957755121
0.239957755503
0.239957756543
0.239957778463
0.237417868548
0.239879258397
0.239954166351
0.239957599888
0.239957749958
0.239957754927
0.239957755041
0.239957755035
0.239957755059
0.239957755499
0.239957755622
0.239957755652
0.23995775544
0.239957756384
0.239957777915
0.237417868668
0.239879257395
0.239954166166
0.239957600226
0.239957749959
0.239957754894
0.239957755031
0.239957755047
0.239957755129
0.239957755083
0.239957755657
0.239957755501
0.239957755128
0.239957755959
0.239957777983
0.237417879059
0.239879257896
0.23995416611
0.239957599791
0.239957749929
0.239957754898
0.23995775503
0.239957755034
0.239957755047
0.239957755039
0.239957755055
0.239957755041
0.23995775507
0.239957755952
0.239957777885
0.237417900606
0.239879256813
0.239954165627
0.239957599833
0.239957749935
0.2399577549
0.239957755034
0.239957755032
0.239957755034
0.239957755035
0.239957755028
0.239957755028
0.239957755056
0.239957755929
0.239957777868
0.237417869737
0.239879258371
0.239954165709
0.239957599772
0.239957749943
0.239957754876
0.239957755041
0.239957755009
0.239957755029
0.239957755033
0.239957755031
0.239957755027
0.239957755057
0.239957755928
0.239957777868
0.237417869176
0.239879258409
0.239954166232
0.239957599705
0.239957749962
0.239957754779
0.239957754875
0.23995775489
0.2399577549
0.2399577549
0.239957754901
0.239957754901
0.239957754929
0.239957755798
0.239957777737
0.237417872303
0.239879257614
0.239954162205
0.239957595344