/*--------------------------------*- C++ -*----------------------------------*\
| =========                 |                                                 |
| \\      /  F ield         | OpenFOAM: The Open Source CFD Toolbox           |
|  \\    /   O peration     | Version:  2406                                  |
|   \\  /    A nd           | Website:  www.openfoam.com                      |
|    \\/     M anipulation  |                                                 |
\*---------------------------------------------------------------------------*/
FoamFile
{
    version     2.0;
    format      ascii;
    arch        "LSB;label=32;scalar=64";
    class       volScalarField;
    location    "0.01";
    object      nut;
}
// * * * * * * * * * * * * * * * * * * * * * * * * * * * * * * * * * * * * * //

dimensions      [0 2 -1 0 0 0 0];

internalField   nonuniform List<scalar> 
29767
(
0.00182275324171
0.0452070950232
0.123606780867
0.134305082345
0.13482539143
0.134843014967
0.13484348318
0.134843493451
0.134843493645
0.134843493649
0.134843493649
0.13484349365
0.13484349366
0.134843493991
0.134843503167
0.00182275316604
0.0452066331628
0.123606074741
0.134305003013
0.134825378679
0.134843005703
0.134843474042
0.134843484317
0.134843484511
0.134843484514
0.134843484515
0.134843484515
0.134843484525
0.134843484855
0.13484349402
0.00182275316639
0.0452066202405
0.123606042758
0.134304999201
0.134825378164
0.134843005367
0.134843473713
0.134843483988
0.134843484182
0.134843484186
0.134843484186
0.134843484187
0.134843484196
0.134843484526
0.13484349369
0.00182275316672
0.0452066211819
0.123606041727
0.134304999053
0.134825378146
0.134843005357
0.134843473703
0.134843483978
0.134843484172
0.134843484176
0.134843484176
0.134843484177
0.134843484187
0.134843484517
0.13484349368
0.00182275316795
0.0452066191934
0.123606041283
0.134304999035
0.134825378145
0.134843005356
0.134843473703
0.134843483977
0.134843484171
0.134843484175
0.134843484175
0.134843484176
0.134843484186
0.134843484516
0.134843493679
0.0018227531684
0.0452066219052
0.12360604173
0.134304999048
0.134825378145
0.134843005356
0.134843473702
0.134843483977
0.134843484171
0.134843484175
0.134843484175
0.134843484176
0.134843484186
0.134843484516
0.134843493679
0.00182275317166
0.045206620708
0.123606041539
0.134304999064
0.134825378142
0.134843005352
0.134843473698
0.134843483973
0.134843484167
0.134843484171
0.134843484171
0.134843484172
0.134843484182
0.134843484512
0.134843493675
0.00182275317163
0.0452066211184
0.1236060412
0.134304998844
0.134825377946
0.134843005158
0.134843473505
0.13484348378
0.134843483973
0.134843483977
0.134843483977
0.134843483978
0.134843483988
0.134843484318
0.134843493482
0.00182275318053
0.0452066393898
0.123606037398
0.134304988978
0.134825367686
0.134842994883
0.134843463229
0.134843473505
0.134843473698
0.134843473702
0.134843473703
0.134843473703
0.134843473713
0.134843474044
0.134843483211
0.00182275317772
0.0452065986151
0.12360572242
0.134304531585
0.134824899784
0.134842526549
0.134842994882
0.134843005157
0.134843005351
0.134843005355
0.134843005355
0.134843005356
0.134843005366
0.134843005703
0.134843014997
0.00182275320219
0.0452066016983
0.123593657389
0.134287280738
0.134807286716
0.134824899771
0.134825367672
0.134825377931
0.134825378127
0.13482537813
0.13482537813
0.134825378132
0.134825378149
0.134825378666
0.13482539145
0.00182275317845
0.0451973475849
0.123217316063
0.133776209437
0.134287280813
0.13430453165
0.134304989054
0.134304998902
0.13430499912
0.134304999109
0.134304999098
0.134304999114
0.134304999258
0.134305003079
0.134305082521
0.00182275256016
0.0447934793216
0.114894849667
0.123217320209
0.123593662023
0.123605727102
0.123606042209
0.123606045848
0.123606046171
0.123606046398
0.123606045967
0.123606046403
0.123606047408
0.12360607945
0.123606786345
0.00182272320094
0.0325369374905
0.0447934792899
0.0451973475593
0.0452066018307
0.0452065987725
0.0452066396988
0.0452066212848
0.0452066208717
0.0452066220777
0.0452066193803
0.0452066213759
0.045206620448
0.0452066333934
0.0452070955975
0.00163061356683
0.00182272320146
0.00182275256092
0.00182275317923
0.00182275320298
0.0018227531785
0.00182275318131
0.00182275317241
0.00182275317243
0.00182275316917
0.00182275316875
0.00182275316752
0.00182275316716
0.0018227531668
0.00182275324241
0.0018226644541
0.0435809458846
0.122860095499
0.134260334512
0.134824639103
0.134843914094
0.134844428948
0.134844440285
0.134844440498
0.134844440502
0.134844440502
0.134844440503
0.134844440513
0.134844440875
0.134844450931
0.0018226643833
0.0435804573926
0.122859314542
0.134260245991
0.134824625029
0.134843903928
0.134844418923
0.134844430264
0.134844430478
0.134844430481
0.134844430481
0.134844430482
0.134844430492
0.134844430854
0.134844440897
0.00182266438414
0.0435804436992
0.122859278882
0.134260241696
0.134824624457
0.13484390356
0.134844418562
0.134844429903
0.134844430117
0.134844430121
0.134844430121
0.134844430121
0.134844430132
0.134844430493
0.134844440536
0.00182266438465
0.0435804440025
0.122859277561
0.13426024152
0.134824624438
0.134843903549
0.134844418551
0.134844429893
0.134844430106
0.13484443011
0.13484443011
0.134844430111
0.134844430121
0.134844430483
0.134844440526
0.00182266438615
0.0435804426341
0.122859277383
0.134260241523
0.134824624437
0.134843903548
0.134844418551
0.134844429892
0.134844430106
0.13484443011
0.134844430109
0.13484443011
0.134844430121
0.134844430482
0.134844440525
0.00182266438685
0.0435804447475
0.122859277937
0.134260241554
0.134824624439
0.134843903548
0.134844418551
0.134844429892
0.134844430106
0.13484443011
0.13484443011
0.13484443011
0.134844430121
0.134844430482
0.134844440525
0.00182266439139
0.0435804426998
0.122859277706
0.134260241565
0.134824624436
0.134843903544
0.134844418547
0.134844429889
0.134844430102
0.134844430106
0.134844430106
0.134844430107
0.134844430117
0.134844430479
0.134844440521
0.00182266439156
0.0435804451469
0.122859277908
0.134260241356
0.134824624223
0.134843903331
0.134844418333
0.134844429675
0.134844429889
0.134844429892
0.134844429892
0.134844429893
0.134844429904
0.134844430265
0.134844440308
0.00182266440228
0.0435804462404
0.12285927092
0.134260230344
0.134824612895
0.13484389199
0.134844406992
0.134844418334
0.134844418547
0.134844418551
0.134844418551
0.134844418552
0.134844418562
0.134844418924
0.134844428971
0.00182266439958
0.0435804398328
0.122858938913
0.134259728382
0.134824098451
0.134843377007
0.134843891993
0.134843903333
0.134843903546
0.134843903551
0.134843903551
0.134843903551
0.134843903562
0.134843903931
0.13484391412
0.00182266442798
0.043580302537
0.122845956198
0.13424088255
0.134804838425
0.134824098506
0.134824612953
0.134824624278
0.134824624491
0.134824624495
0.134824624496
0.134824624494
0.134824624513
0.134824625084
0.134824639185
0.00182266440236
0.0435712536083
0.122444301428
0.133687175084
0.134240883542
0.13425972945
0.134260231432
0.134260242404
0.134260242595
0.134260242602
0.134260242615
0.134260242586
0.134260242733
0.134260247011
0.134260335637
0.0018226637791
0.0431660780287
0.113685749542
0.122444311058
0.122845966789
0.122858949767
0.122859281953
0.12285928856
0.122859288179
0.122859288607
0.122859288493
0.1228592884
0.122859289417
0.122859324903
0.122860106615
0.00182263438743
0.0311835943138
0.0431660781109
0.0435712539701
0.0435803027982
0.0435804402518
0.0435804468194
0.043580445406
0.0435804427813
0.0435804450341
0.0435804434352
0.0435804445055
0.0435804438335
0.0435804573608
0.0435809463394
0.00163261763105
0.0018226343754
0.00182266378065
0.00182266440299
0.00182266442745
0.0018226643998
0.00182266440304
0.00182266439203
0.00182266439187
0.00182266438759
0.00182266437998
0.00182266437821
0.00182266438458
0.00182266438426
0.00182266445353
0.00182266409453
0.0435651617328
0.122846387563
0.134259351999
0.134824621358
0.134843935824
0.13484445185
0.134844463215
0.134844463429
0.134844463432
0.134844463433
0.134844463433
0.134844463443
0.134844463805
0.134844473881
0.00182266402958
0.0435646729089
0.122845604793
0.134259263597
0.134824607257
0.134843925638
0.134844441807
0.134844453175
0.134844453389
0.134844453393
0.134844453394
0.134844453394
0.134844453404
0.134844453766
0.13484446383
0.00182266403092
0.0435646589619
0.122845568793
0.134259259269
0.134824606683
0.134843925269
0.134844441446
0.134844452814
0.134844453028
0.134844453033
0.134844453032
0.134844453033
0.134844453043
0.134844453405
0.134844463467
0.00182266403179
0.0435646592131
0.122845567087
0.134259259041
0.134824606658
0.134843925257
0.134844441435
0.134844452803
0.134844453017
0.134844453024
0.134844453023
0.134844453023
0.134844453033
0.134844453395
0.134844463456
0.0018226640334
0.0435646582033
0.122845566849
0.134259258692
0.134824606655
0.134843925257
0.134844441434
0.134844452802
0.134844453016
0.134844453022
0.134844453022
0.134844453023
0.134844453032
0.134844453394
0.134844463456
0.00182266403478
0.0435646603659
0.122845567876
0.134259259123
0.134824606663
0.134843925257
0.134844441435
0.134844452803
0.134844453017
0.134844453022
0.134844453022
0.134844453025
0.134844453033
0.134844453395
0.134844463456
0.00182266403968
0.0435646592713
0.122845567942
0.134259259154
0.134824606664
0.134843925255
0.134844441431
0.134844452799
0.134844453013
0.134844453016
0.134844453018
0.134844453021
0.13484445303
0.134844453391
0.134844463453
0.00182266403909
0.0435646621948
0.122845568403
0.13425925897
0.134824606462
0.134843925043
0.134844441217
0.134844452586
0.134844452799
0.134844452802
0.134844452802
0.134844452803
0.134844452814
0.134844453176
0.134844463239
0.00182266405006
0.0435646631733
0.122845560865
0.134259247877
0.134824595104
0.134843913693
0.134844429852
0.134844441218
0.134844441431
0.134844441435
0.134844441434
0.134844441435
0.134844441445
0.134844441808
0.134844451874
0.00182266405078
0.0435646590934
0.122845228664
0.134258744405
0.134824079476
0.134843397532
0.134843913695
0.134843925045
0.134843925256
0.134843925259
0.134843925259
0.13484392526
0.13484392527
0.13484392564
0.13484393585
0.00182266406826
0.0435645166377
0.122832224232
0.13423986071
0.13480477882
0.134824079531
0.134824595152
0.134824606506
0.134824606709
0.134824606712
0.134824606711
0.13482460671
0.134824606727
0.134824607302
0.134824621437
0.00182266405158
0.0435554793341
0.122430065647
0.133685224933
0.134239861929
0.134258745769
0.134259248663
0.134259259844
0.134259260034
0.134259260064
0.134259259906
0.134259260017
0.134259260001
0.13425926446
0.134259353227
0.0018226633902
0.0431503036135
0.113664556364
0.122430074807
0.122832234291
0.12284523911
0.122845570998
0.122845577871
0.122845577433
0.122845578001
0.122845577818
0.122845577476
0.122845578482
0.122845614132
0.122846398222
0.00182263402904
0.031172375967
0.0431503039952
0.0435554794883
0.043564516787
0.0435646593276
0.0435646636355
0.0435646618841
0.0435646589708
0.0435646607161
0.0435646593442
0.0435646595726
0.0435646591977
0.0435646725607
0.0435651623808
0.00163546257379
0.00182263400587
0.00182266339177
0.0018226640543
0.00182266406783
0.00182266405117
0.00182266405085
0.0018226640417
0.00182266403804
0.0018226640338
0.00182266402159
0.0018226640194
0.00182266403106
0.00182266403079
0.00182266409792
0.00182266422561
0.0435662527973
0.12284648567
0.134259351407
0.134824621882
0.134843936524
0.134844452554
0.134844463919
0.134844464131
0.134844464134
0.134844464134
0.134844464135
0.134844464145
0.134844464506
0.134844474581
0.00182266417197
0.043565765014
0.122845718101
0.134259265212
0.134824607859
0.134843926338
0.134844442512
0.134844453878
0.134844454091
0.134844454096
0.134844454063
0.134844454096
0.134844454105
0.134844454467
0.13484446453
0.00182266417522
0.0435657527469
0.122845684821
0.134259261033
0.13482460729
0.134843925969
0.134844442152
0.134844453517
0.13484445373
0.134844453736
0.134844453733
0.134844453737
0.134844453744
0.134844454106
0.134844464167
0.00182266417619
0.0435657538508
0.122845670164
0.13425925884
0.134824607201
0.134843925957
0.134844442139
0.134844453505
0.134844453718
0.13484445369
0.134844453688
0.134844453728
0.134844453736
0.134844454103
0.134844464156
0.00182266417603
0.0435657490964
0.122845665268
0.134259258126
0.134824607176
0.134843925956
0.13484444214
0.134844453505
0.134844453718
0.134844453726
0.134844453688
0.134844453687
0.134844453731
0.134844454098
0.134844464157
0.00182266417759
0.0435657547321
0.122845681781
0.134259260753
0.134824607264
0.134843925958
0.134844442139
0.134844453506
0.134844453719
0.134844453728
0.134844453722
0.13484445369
0.134844453737
0.134844454099
0.134844464155
0.0018226641839
0.0435657534446
0.122845684669
0.134259260918
0.134824607276
0.134843925957
0.134844442135
0.134844453503
0.134844453715
0.134844453719
0.134844453724
0.13484445369
0.134844453734
0.134844454095
0.134844464154
0.00182266417036
0.0435657549536
0.122845677286
0.134259259717
0.13482460707
0.134843925747
0.134844441923
0.13484445329
0.134844453503
0.134844453503
0.134844453504
0.134844453504
0.134844453515
0.134844453878
0.13484446394
0.00182266419487
0.0435657555081
0.122845675548
0.134259249555
0.134824595727
0.134843914378
0.134844430559
0.134844441926
0.134844442135
0.134844442106
0.134844442136
0.134844442137
0.134844442148
0.134844442511
0.134844452575
0.00182266419544
0.0435657495177
0.122845327677
0.134258743876
0.134824080007
0.134843398211
0.134843914379
0.13484392575
0.134843925959
0.134843925959
0.134843925959
0.13484392596
0.13484392597
0.134843926341
0.134843936549
0.00182266421044
0.0435655877941
0.122832324291
0.134239860437
0.134804779272
0.134824080165
0.134824595719
0.134824607128
0.134824607335
0.134824607328
0.134824607263
0.134824607327
0.134824607286
0.134824607891
0.134824621999
0.00182266418307
0.0435565732548
0.122430164782
0.133685223607
0.134239862594
0.134258747789
0.134259248551
0.134259261006
0.134259262132
0.134259261997
0.134259259757
0.134259262011
0.134259259911
0.134259264955
0.134259353259
0.00182266353258
0.0431512766496
0.113664715124
0.122430175148
0.122832339273
0.122845356227
0.122845673269
0.12284568946
0.122845694916
0.122845693295
0.122845679031
0.122845695204
0.122845681495
0.122845720394
0.122846501998
0.00182263416646
0.0311735302543
0.0431512796285
0.0435565729156
0.0435655849907
0.0435657519937
0.0435657536752
0.0435657542363
0.0435657522711
0.0435657536494
0.0435657506505
0.0435657526808
0.0435657532864
0.0435657645236
0.0435662568916
0.00163554411757
0.00182263412431
0.00182266353343
0.00182266419959
0.00182266421113
0.00182266419705
0.0018226641959
0.00182266418667
0.00182266416893
0.00182266417124
0.00182266415258
0.00182266415031
0.00182266417344
0.00182266417521
0.00182266423841
0.00182266418822
0.0435663073765
0.122846497759
0.134259351902
0.134824621581
0.13484393616
0.13484445219
0.134844463554
0.134844463768
0.13484446377
0.134844463767
0.134844463771
0.134844463781
0.134844464141
0.134844474211
0.00182266405928
0.0435658175708
0.122845724793
0.134259264323
0.134824607494
0.134843925972
0.134844442144
0.134844453511
0.134844453724
0.134844453725
0.134844453677
0.134844453725
0.134844453737
0.1348444541
0.134844464161
0.00182266409044
0.0435658056176
0.122845690683
0.134259259877
0.13482460692
0.134843925602
0.134844441785
0.13484445315
0.134844453363
0.134844453372
0.134844453369
0.134844453376
0.13484445338
0.134844453747
0.134844463801
0.00182266409139
0.0435658064232
0.122845679398
0.134259258781
0.134824606881
0.134843925591
0.134844441771
0.134844453139
0.134844453351
0.134844453314
0.134844453414
0.134844453494
0.13484445339
0.134844453843
0.1348444638
0.00182266404594
0.0435658040141
0.122845675983
0.134259258402
0.134824606865
0.13484392559
0.13484444177
0.134844453139
0.134844453354
0.134844453361
0.134844453407
0.134844453433
0.134844453454
0.134844453743
0.134844463792
0.00182266404858
0.0435658072372
0.122845688654
0.134259260035
0.134824606905
0.134843925592
0.13484444177
0.134844453138
0.134844453352
0.134844453357
0.134844453353
0.134844453315
0.134844453372
0.134844453729
0.134844463788
0.00182266409399
0.0435658054269
0.122845690036
0.134259259738
0.134824606899
0.134843925588
0.134844441768
0.134844453135
0.134844453349
0.134844453355
0.134844453355
0.134844453306
0.13484445336
0.134844453728
0.134844463833
0.00182266412878
0.043565807751
0.122845686048
0.134259259587
0.134824606697
0.134843925374
0.134844441555
0.134844452922
0.134844453135
0.134844453135
0.13484445314
0.134844453137
0.134844453151
0.134844453512
0.134844463577
0.00182266409771
0.0435658076306
0.122845681986
0.134259248858
0.134824595342
0.134843913935
0.134844430185
0.134844441561
0.134844441765
0.134844441716
0.134844441767
0.13484444177
0.134844441781
0.134844442144
0.13484445221
0.00182266410306
0.0435658043834
0.122845338322
0.134258744178
0.134824079647
0.134843397799
0.134843913937
0.134843925376
0.13484392559
0.134843925591
0.134843925592
0.134843925592
0.134843925604
0.134843925975
0.134843936183
0.00182266401303
0.0435656391447
0.122832333167
0.134239860657
0.134804778923
0.134824079767
0.134824595368
0.134824606757
0.134824606969
0.134824606972
0.134824606949
0.134824606971
0.134824606972
0.134824607564
0.134824621684
0.00182266413304
0.0435566290274
0.122430176067
0.133685224991
0.134239862546
0.134258746932
0.134259248808
0.134259260825
0.134259261147
0.134259261333
0.134259260041
0.134259261243
0.134259260187
0.134259264896
0.134259353513
0.00182266335822
0.0431513274941
0.113664728518
0.122430187422
0.122832348047
0.122845362835
0.122845683648
0.122845697525
0.122845701198
0.122845699998
0.122845690366
0.122845701049
0.122845692254
0.122845729531
0.122846512645
0.0018226341092
0.0311735861266
0.0431513273425
0.0435566288522
0.0435656380362
0.0435658054782
0.0435658064921
0.043565807198
0.0435658055541
0.0435658056167
0.0435658049739
0.0435658055008
0.0435658063394
0.0435658177317
0.0435663092551
0.00163630531336
0.00182263398305
0.00182266347029
0.00182266409228
0.0018226640713
0.00182266404753
0.00182266410542
0.00182266408521
0.00182266412905
0.00182266408279
0.00182266411379
0.00182266411199
0.00182266406987
0.00182266408921
0.0018226641997
0.00182266421496
0.0435665036279
0.122846575456
0.134259357269
0.134824621779
0.134843936134
0.134844452162
0.134844463528
0.134844463741
0.134844463746
0.134844463746
0.134844463746
0.134844463746
0.134844464082
0.134844473971
0.00182266406034
0.0435660025019
0.122845760809
0.134259265077
0.13482460755
0.134843925947
0.134844442119
0.134844453487
0.134844453701
0.134844453704
0.134844453665
0.134844453705
0.134844453716
0.134844454071
0.134844464104
0.00182266409105
0.0435659935371
0.122845724263
0.13425926051
0.134824606971
0.134843925577
0.134844441762
0.134844453126
0.13484445334
0.134844453354
0.134844453348
0.134844453353
0.134844453359
0.134844453727
0.134844463774
0.001822664092
0.0435659933245
0.122845724639
0.134259260785
0.134824606969
0.134843925567
0.134844441748
0.134844453116
0.13484445333
0.134844453302
0.134844453314
0.134844453361
0.134844453365
0.134844453774
0.134844463778
0.00182266404698
0.0435659990724
0.122845730069
0.134259261297
0.13482460699
0.134843925567
0.13484444175
0.134844453116
0.13484445333
0.134844453345
0.134844453292
0.13484445337
0.134844453328
0.134844453717
0.134844463771
0.0018226640497
0.043565993012
0.122845723692
0.134259260752
0.134824606958
0.134843925567
0.134844441747
0.134844453115
0.134844453329
0.134844453334
0.134844453336
0.134844453304
0.134844453346
0.134844453708
0.134844463768
0.00182266409446
0.0435659898037
0.122845721805
0.134259260319
0.134824606944
0.134843925564
0.134844441743
0.134844453112
0.134844453325
0.134844453331
0.134844453342
0.134844453293
0.134844453338
0.134844453707
0.134844463813
0.00182266414798
0.0435659967149
0.122845732971
0.134259261534
0.134824606774
0.134843925352
0.134844441528
0.134844452898
0.134844453112
0.134844453113
0.134844453116
0.134844453113
0.134844453127
0.13484445349
0.134844463555
0.00182266409829
0.0435659950743
0.122845716798
0.134259249578
0.134824595373
0.134843913994
0.134844430163
0.134844441538
0.134844441742
0.1348444417
0.134844441744
0.134844441748
0.134844441758
0.13484444212
0.134844452186
0.00182266410344
0.0435659989652
0.122845391599
0.134258746924
0.134824079784
0.134843397792
0.134843913999
0.134843925356
0.134843925566
0.134843925567
0.134843925571
0.13484392557
0.134843925582
0.134843925952
0.134843936161
0.00182266401164
0.0435658251012
0.122832376983
0.134239862502
0.134804779064
0.13482407982
0.134824595541
0.134824606845
0.134824607012
0.134824607027
0.13482460714
0.13482460703
0.134824607151
0.134824607651
0.134824621858
0.00182266415196
0.0435568239245
0.122430231976
0.133685233878
0.134239864515
0.134258747672
0.134259253679
0.134259263038
0.134259261837
0.134259262115
0.134259265354
0.13425926201
0.134259265347
0.134259267653
0.13425935842
0.00182266335881
0.0431515119633
0.113664795646
0.122430258769
0.122832393158
0.122845398294
0.12284574827
0.12284574058
0.12284573605
0.122845735801
0.122845766716
0.122845736979
0.12284576494
0.122845780655
0.122846575478
0.00182263412134
0.031173768895
0.0431514994278
0.0435568233439
0.0435658319513
0.0435659939498
0.0435659968498
0.043565996166
0.0435659965122
0.0435659896201
0.0435660002111
0.0435659947009
0.0435659950169
0.0435660072896
0.0435664962093
0.00163626785816
0.00182263393719
0.00182266347485
0.00182266409288
0.00182266407209
0.00182266404858
0.00182266410589
0.00182266408459
0.00182266414605
0.00182266408351
0.00182266413795
0.00182266413627
0.0018226640708
0.00182266408993
0.00182266421744
0.00182266409984
0.0435665171966
0.122846568978
0.134259356319
0.134824622084
0.134843936451
0.134844452477
0.134844463844
0.134844464054
0.134844464072
0.134844464086
0.134844464045
0.134844463869
0.134844462111
0.134844444531
0.00182266412943
0.0435660209287
0.122845764655
0.134259265521
0.134824607909
0.134843926278
0.134844442437
0.134844453803
0.134844454017
0.134844454044
0.134844454076
0.134844454051
0.13484445404
0.134844454239
0.134844461924
0.00182266413215
0.0435660082937
0.122845727392
0.134259261077
0.134824607331
0.134843925898
0.134844442095
0.134844453444
0.13484445366
0.134844453709
0.134844453661
0.134844453671
0.134844453692
0.134844454036
0.13484446396
0.00182266413277
0.0435660074047
0.122845728426
0.134259261353
0.134824607332
0.134843925887
0.134844442069
0.134844453433
0.134844453669
0.13484445371
0.134844453313
0.134844453321
0.134844453635
0.134844453722
0.134844464086
0.00182266413192
0.0435660133579
0.122845733508
0.134259261842
0.134824607349
0.134843925888
0.134844442087
0.134844453434
0.134844453646
0.134844453705
0.134844453389
0.134844453355
0.134844453318
0.134844454003
0.134844464091
0.00182266413314
0.0435660073812
0.122845726943
0.134259261116
0.134824607314
0.134843925847
0.134844442065
0.134844453432
0.134844453647
0.134844453657
0.134844453668
0.134844453706
0.134844453605
0.13484445402
0.134844464081
0.00182266412969
0.0435660056081
0.122845724957
0.134259260849
0.134824607287
0.13484392588
0.134844442059
0.134844453429
0.134844453639
0.134844453647
0.134844453719
0.134844453703
0.134844453663
0.134844454022
0.13484446408
0.00182266398295
0.0435660106071
0.122845735573
0.1342592622
0.134824607119
0.134843925679
0.134844441847
0.134844453217
0.134844453431
0.134844453435
0.134844453431
0.134844453432
0.13484445344
0.134844453806
0.134844463863
0.00182266414106
0.043566008751
0.122845720716
0.134259250026
0.13482459574
0.134843914322
0.134844430494
0.13484444188
0.134844442067
0.134844442132
0.134844442068
0.134844442066
0.134844442075
0.134844442436
0.134844452497
0.00182266413485
0.0435660135351
0.122845395512
0.134258747571
0.134824080154
0.134843398147
0.134843914327
0.134843925686
0.134843925889
0.13484392589
0.134843925889
0.134843925891
0.1348439259
0.134843926273
0.134843936477
0.00182266413446
0.0435658386576
0.12283238071
0.134239862817
0.134804779385
0.134824080165
0.134824595899
0.134824607198
0.134824607394
0.134824607403
0.134824607449
0.134824607406
0.134824607462
0.134824608036
0.134824622175
0.00182266398017
0.0435568384053
0.122430236136
0.133685233889
0.134239864577
0.134258748103
0.134259253737
0.134259263493
0.134259262351
0.134259262796
0.134259264204
0.134259262407
0.134259264221
0.134259267977
0.134259358101
0.00182266344607
0.0431515261855
0.113664802705
0.122430260496
0.122832396437
0.12284540113
0.122845749742
0.122845744417
0.122845739993
0.122845740763
0.122845760876
0.12284573958
0.12284575951
0.122845782171
0.122846576989
0.00182263393669
0.0311737852318
0.0431515181584
0.0435568377442
0.0435658453933
0.0435660075702
0.0435660110383
0.0435660107052
0.0435660111325
0.0435660047929
0.0435660140477
0.0435660081477
0.0435660081048
0.0435660211626
0.0435665106842
0.0016365839144
0.00182263396795
0.00182266328988
0.0018226641366
0.00182266414544
0.00182266414328
0.00182266414301
0.00182266406249
0.00182266398807
0.00182266412637
0.00182266398597
0.0018226640473
0.00182266413033
0.00182266413407
0.00182266415053
0.00182266410034
0.043566555501
0.122846567913
0.134259355841
0.134824621846
0.134843936177
0.134844452189
0.134844463545
0.134844463727
0.134844463698
0.13484446335
0.134844459174
0.134844435908
0.134844172012
0.134840808325
0.00182266397904
0.0435660785769
0.12284578162
0.134259266239
0.134824607624
0.134843926129
0.134844442152
0.134844453513
0.134844453734
0.134844453682
0.134844453712
0.134844453711
0.134844452137
0.134844432158
0.134844121337
0.00182266397983
0.043566053024
0.122845738641
0.134259261319
0.134824607018
0.134843925613
0.13484444178
0.134844453159
0.134844453482
0.134844453475
0.134844453574
0.134844453393
0.134844453275
0.134844452612
0.134844443908
0.00182266398258
0.0435660515047
0.122845746359
0.134259262417
0.134824607043
0.134843925605
0.134844441773
0.134844453138
0.13484445331
0.134844453619
0.134844453391
0.134844453333
0.134844453555
0.134844453681
0.13484446332
0.0018226639809
0.043566057195
0.122845748933
0.134259262651
0.134824607058
0.134843925698
0.134844441776
0.13484445314
0.134844453347
0.134844453569
0.134844453451
0.134844453392
0.134844453409
0.134844453926
0.134844463749
0.00182266398177
0.0435660504477
0.122845739363
0.134259261608
0.134824607029
0.134843925601
0.134844441771
0.134844453148
0.134844453463
0.134844453378
0.134844453643
0.134844453613
0.13484445341
0.134844453745
0.134844463862
0.00182266402137
0.0435660524549
0.122845736465
0.134259261061
0.134824606982
0.134843925589
0.134844441767
0.134844453132
0.134844453317
0.134844453349
0.134844453345
0.13484445336
0.134844453361
0.134844453723
0.134844463795
0.00182266398294
0.0435660510782
0.122845744104
0.134259262239
0.134824606815
0.134843925374
0.134844441556
0.134844452923
0.134844453133
0.134844453118
0.134844453136
0.134844453139
0.13484445315
0.134844453513
0.134844463573
0.00182266398913
0.043566052065
0.12284573845
0.134259250667
0.134824595412
0.134843913915
0.134844430201
0.134844441558
0.134844441742
0.134844441774
0.134844441745
0.134844441772
0.134844441783
0.134844442145
0.134844452209
0.00182266399383
0.0435660609174
0.122845414116
0.134258748649
0.13482407991
0.134843397825
0.13484391392
0.134843925377
0.134843925592
0.134843925546
0.134843925596
0.134843925598
0.134843925609
0.134843925978
0.134843936188
0.00182266400814
0.0435658828689
0.122832398997
0.134239864172
0.134804779178
0.134824079893
0.134824595566
0.134824606885
0.134824607063
0.13482460713
0.134824607115
0.134824607083
0.134824607123
0.134824607674
0.13482462185
0.00182266397915
0.0435568799797
0.122430255748
0.133685234988
0.134239865497
0.134258748733
0.13425925377
0.134259263622
0.134259262581
0.134259264759
0.134259263837
0.134259262785
0.134259263794
0.134259267877
0.134259358223
0.0018226632957
0.0431515721524
0.11366483087
0.122430270812
0.122832414168
0.122845417076
0.122845757608
0.122845761011
0.122845759332
0.122845763833
0.12284576035
0.122845750407
0.122845758825
0.122845789405
0.122846585954
0.00182263393412
0.0311738279447
0.0431515770223
0.0435568804502
0.0435658906253
0.0435660503935
0.0435660578743
0.0435660553499
0.0435660537131
0.0435660512336
0.0435660531924
0.0435660472329
0.0435660473132
0.0435660604976
0.043566555455
0.00163653721054
0.00182263401246
0.00182266328794
0.00182266398656
0.00182266399547
0.00182266399325
0.00182266398722
0.00182266406403
0.00182266398271
0.00182266398349
0.00182266398606
0.00182266404781
0.00182266397986
0.00182266397937
0.001822664151
0.00182266421354
0.0435665622133
0.122846571125
0.134259356133
0.134824621742
0.134843936172
0.134844452185
0.134844463541
0.13484446366
0.134844461815
0.134844424346
0.134843979705
0.134841539006
0.134816532724
0.134522778491
0.00182266397435
0.0435660847185
0.122845784153
0.134259266486
0.134824607623
0.134843926115
0.134844442147
0.13484445351
0.134844453729
0.134844453584
0.134844451984
0.134844431697
0.134844276251
0.134842144012
0.13480912487
0.00182266397476
0.0435660578777
0.122845740463
0.134259261614
0.134824607027
0.134843925611
0.134844441777
0.134844453156
0.134844453436
0.134844453431
0.134844453513
0.134844452344
0.134844445393
0.134844325812
0.134842261482
0.00182266397621
0.0435660572713
0.122845748904
0.13425926249
0.134824607046
0.134843925601
0.134844441769
0.134844453134
0.134844453281
0.134844453555
0.134844453657
0.134844453337
0.134844453303
0.134844449273
0.13484437823
0.00182266397551
0.0435660675606
0.122845750498
0.134259262931
0.134824607073
0.134843925609
0.134844441772
0.134844453138
0.134844453361
0.134844453585
0.134844453585
0.134844453623
0.134844453554
0.134844453803
0.134844461389
0.00182266397597
0.0435660579008
0.12284574178
0.134259261857
0.134824607023
0.134843925588
0.134844441767
0.134844453145
0.134844453402
0.134844453375
0.134844453653
0.134844453521
0.134844453372
0.134844453736
0.134844463762
0.0018226640159
0.0435660596533
0.122845739375
0.134259261393
0.134824606988
0.134843925587
0.134844441765
0.13484445313
0.13484445334
0.13484445335
0.134844453338
0.134844453329
0.134844453356
0.13484445372
0.134844463792
0.0018226640987