/*--------------------------------*- C++ -*----------------------------------*\
| =========                 |                                                 |
| \\      /  F ield         | OpenFOAM: The Open Source CFD Toolbox           |
|  \\    /   O peration     | Version:  2406                                  |
|   \\  /    A nd           | Website:  www.openfoam.com                      |
|    \\/     M anipulation  |                                                 |
\*---------------------------------------------------------------------------*/
FoamFile
{
    version     2.0;
    format      ascii;
    arch        "LSB;label=32;scalar=64";
    class       volScalarField;
    location    "0.01";
    object      omega;
}
// * * * * * * * * * * * * * * * * * * * * * * * * * * * * * * * * * * * * * //

dimensions      [0 0 -1 0 0 0 0];

internalField   nonuniform List<scalar> 
29767
(
130.26508116
5.30636511086
1.94128873292
1.78667596748
1.77978197724
1.77954939829
1.77954321975
1.77954308397
1.77954308126
1.77954308112
1.77954308104
1.77954308099
1.77954308101
1.77954308248
1.77954310927
130.265075765
5.30641868933
1.94129964886
1.78667687427
1.77978199847
1.77954937352
1.77954319331
1.77954305749
1.77954305477
1.77954305463
1.77954305455
1.7795430545
1.77954305452
1.77954305598
1.77954308252
130.26507579
5.30642019579
1.94130014489
1.78667691917
1.77978199949
1.77954937217
1.77954319187
1.77954305604
1.77954305332
1.77954305318
1.7795430531
1.77954305305
1.77954305307
1.77954305453
1.77954308106
130.265075813
5.3064200852
1.94130016096
1.78667692099
1.77978199958
1.77954937215
1.77954319185
1.77954305602
1.7795430533
1.77954305316
1.77954305307
1.77954305303
1.77954305305
1.7795430545
1.77954308103
130.265075901
5.30642031865
1.94130016806
1.78667692129
1.77978199967
1.77954937221
1.77954319191
1.77954305607
1.77954305336
1.77954305321
1.77954305312
1.77954305307
1.7795430531
1.77954305455
1.77954308108
130.265075933
5.30642000054
1.94130016116
1.7866769212
1.77978199977
1.7795493723
1.779543192
1.77954305615
1.77954305344
1.77954305329
1.77954305321
1.77954305316
1.77954305318
1.77954305463
1.77954308116
130.265076165
5.30642014128
1.94130016449
1.78667692113
1.77978199997
1.77954937247
1.77954319217
1.77954305631
1.7795430536
1.77954305344
1.77954305336
1.7795430533
1.77954305333
1.77954305478
1.77954308131
130.265076163
5.30642009335
1.94130017
1.78667692422
1.77978200273
1.77954937519
1.7795431949
1.77954305903
1.77954305632
1.77954305615
1.77954305607
1.77954305602
1.77954305604
1.77954305749
1.77954308402
130.265076798
5.30641794977
1.94130023052
1.78667705584
1.77978213859
1.77954951109
1.77954333081
1.7795431949
1.77954319217
1.779543192
1.77954319191
1.77954319185
1.77954319187
1.77954319331
1.7795432198
130.265076597
5.30642273533
1.94130517696
1.78668314008
1.77978831467
1.77955569126
1.77954951111
1.7795493752
1.77954937249
1.77954937231
1.77954937223
1.77954937217
1.77954937219
1.77954937354
1.77954939835
130.265078342
5.30642237174
1.94149465641
1.7869126294
1.78002081834
1.77978831484
1.77978213877
1.77978200293
1.77978200017
1.77978199996
1.77978199987
1.77978199978
1.77978199969
1.77978199866
1.77978197743
130.265076649
5.30750835589
1.94742356657
1.79373822372
1.78691262847
1.78668313928
1.7866770549
1.78667692351
1.78667692045
1.78667692044
1.78667692051
1.78667692023
1.78667691847
1.78667687347
1.78667596565
130.265032559
5.35533891782
2.08846055257
1.94742350183
1.94149458448
1.9413051043
1.94130015583
1.94130009787
1.94130009261
1.94130008872
1.94130009538
1.94130008838
1.94130007274
1.94129957579
1.94128864821
130.262938981
7.37134287569
5.35533892926
5.30750836909
5.30642236651
5.30642272717
5.30641792382
5.30642008413
5.30642013238
5.3064199906
5.30642030703
5.30642007274
5.30642018174
5.30641867258
5.30636505398
130.25641858
130.262939018
130.265032614
130.265076705
130.265078399
130.265076653
130.265076853
130.265076218
130.26507622
130.265075988
130.265075958
130.26507587
130.265075844
130.265075819
130.265081211
130.258749798
5.50422502632
1.95306884866
1.78725650527
1.77977710633
1.77952273647
1.77951594285
1.77951579323
1.7795157904
1.77951579033
1.77951579033
1.77951579032
1.77951579039
1.77951579206
1.77951582215
130.258744749
5.50428601537
1.953081071
1.78725751992
1.77977713004
1.77952270863
1.77951591314
1.77951576347
1.77951576064
1.77951576057
1.77951576057
1.77951576056
1.77951576062
1.77951576228
1.77951579209
130.258744809
5.50428773336
1.95308163088
1.78725757065
1.77977713118
1.77952270709
1.77951591149
1.77951576182
1.77951575899
1.77951575892
1.77951575892
1.77951575891
1.77951575897
1.77951576063
1.77951579042
130.258744846
5.50428769488
1.95308165168
1.78725757279
1.77977713124
1.77952270703
1.77951591143
1.77951576175
1.77951575892
1.77951575886
1.77951575885
1.77951575884
1.77951575891
1.77951576056
1.77951579035
130.258744952
5.50428786767
1.9530816545
1.78725757276
1.77977713124
1.77952270704
1.77951591144
1.77951576177
1.77951575893
1.77951575887
1.77951575886
1.77951575885
1.77951575892
1.77951576057
1.77951579036
130.258745003
5.504287601
1.95308164571
1.78725757236
1.77977713123
1.77952270704
1.77951591144
1.77951576177
1.77951575894
1.77951575887
1.77951575887
1.77951575886
1.77951575892
1.77951576057
1.77951579036
130.258745326
5.50428785974
1.9530816494
1.78725757223
1.77977713128
1.77952270712
1.77951591152
1.77951576184
1.77951575901
1.77951575894
1.77951575893
1.77951575892
1.77951575899
1.77951576064
1.77951579043
130.258745338
5.50428755078
1.9530816462
1.78725757503
1.77977713412
1.77952270995
1.77951591436
1.77951576468
1.77951576184
1.77951576177
1.77951576176
1.77951576175
1.77951576182
1.77951576347
1.77951579326
130.258746103
5.50428741314
1.95308175729
1.78725772163
1.77977728365
1.77952285961
1.77951606402
1.77951591435
1.77951591152
1.77951591144
1.77951591144
1.77951591143
1.77951591149
1.77951591314
1.77951594288
130.25874591
5.50428822237
1.95308703448
1.78726440293
1.77978407388
1.77952965501
1.77952285958
1.77952270992
1.77952270709
1.77952270701
1.77952270701
1.779522707
1.77952270706
1.77952270861
1.77952273648
130.258747936
5.50430555528
1.95329340932
1.78751527715
1.78003832087
1.77978407316
1.77977728289
1.77977713339
1.77977713056
1.7797771305
1.77977713048
1.7797771305
1.77977713046
1.77977712933
1.7797771056
130.258746109
5.50544814585
1.95969975361
1.79491772336
1.78751526402
1.78726438879
1.78725770723
1.78725756117
1.78725755861
1.78725755848
1.78725755831
1.78725755869
1.78725755694
1.78725750644
1.78725649072
130.258701664
5.55709894555
2.11065089395
1.95969960059
1.95329324213
1.95308686316
1.95308158314
1.9530814781
1.95308148414
1.95308147731
1.95308147911
1.95308148059
1.95308146464
1.95308090753
1.95306867352
130.256605772
7.69098043
5.55709894681
5.50544811469
5.50430553679
5.50428818412
5.50428735478
5.50428753281
5.50428786414
5.50428757951
5.50428778081
5.50428764551
5.50428773107
5.50428603413
5.5042249834
130.250300396
130.256604914
130.258701775
130.258746153
130.258747898
130.258745926
130.258746157
130.258745372
130.25874536
130.258745055
130.258744512
130.258744386
130.25874484
130.258744818
130.258749757
130.258724158
5.50621816827
1.95328650086
1.78726933789
1.77977709682
1.77952220599
1.77951539695
1.77951524696
1.77951524412
1.77951524404
1.77951524403
1.77951524402
1.77951524409
1.77951524579
1.77951527601
130.258719526
5.50627924395
1.9532987544
1.7872703506
1.77977712053
1.77952217804
1.77951536711
1.77951521709
1.77951521424
1.77951521416
1.77951521414
1.77951521414
1.77951521423
1.77951521589
1.77951524581
130.258719621
5.5062809953
1.95329931979
1.78727040176
1.77977712168
1.77952217649
1.77951536544
1.77951521543
1.77951521258
1.77951521249
1.77951521249
1.77951521249
1.77951521257
1.77951521423
1.77951524412
130.258719683
5.50628096333
1.9532993467
1.78727040459
1.7797771218
1.77952217643
1.77951536539
1.77951521536
1.77951521251
1.77951521241
1.77951521241
1.77951521241
1.77951521249
1.77951521415
1.77951524406
130.258719798
5.50628109084
1.95329935049
1.78727040923
1.77977712184
1.77952217644
1.77951536539
1.77951521537
1.77951521252
1.77951521243
1.77951521241
1.7795152124
1.77951521249
1.77951521415
1.77951524406
130.258719897
5.50628081764
1.95329933416
1.78727040351
1.77977712174
1.77952217644
1.7795153654
1.77951521538
1.77951521253
1.77951521244
1.77951521242
1.77951521239
1.77951521249
1.77951521415
1.77951524407
130.258720246
5.50628095638
1.95329933314
1.78727040311
1.77977712174
1.7795221765
1.77951536547
1.77951521544
1.77951521259
1.77951521253
1.77951521249
1.77951521246
1.77951521254
1.77951521421
1.77951524413
130.258720204
5.50628058663
1.95329932581
1.78727040557
1.77977712443
1.7795221793
1.77951536833
1.77951521829
1.77951521544
1.77951521537
1.77951521536
1.77951521534
1.77951521541
1.77951521708
1.77951524699
130.258720987
5.50628046372
1.95329944568
1.78727055324
1.77977727435
1.77952232908
1.7795155183
1.7795153683
1.77951536547
1.77951536539
1.77951536539
1.77951536539
1.77951536545
1.77951536711
1.77951539699
130.258721038
5.50628097947
1.95330472705
1.78727725463
1.77978408012
1.77952913994
1.77952232905
1.77952217928
1.77952217648
1.77952217642
1.7795221764
1.77952217639
1.77952217646
1.77952217802
1.779522206
130.258722284
5.50629897646
1.95351149332
1.78752863671
1.78003886364
1.7797840794
1.77977727372
1.77977712384
1.77977712116
1.7797771211
1.7797771211
1.77977712112
1.7797771211
1.77977711995
1.77977709614
130.258721095
5.50744092458
1.95992733544
1.79494365698
1.78752862056
1.78727723657
1.78727054287
1.78727039402
1.78727039148
1.78727039107
1.78727039316
1.78727039168
1.78727039211
1.78727033922
1.78726932198
130.258673932
5.55912932617
2.11104411344
1.95992718989
1.95351133453
1.95330456215
1.95329928575
1.95329917648
1.95329918343
1.95329917438
1.95329917728
1.95329918271
1.95329916693
1.95329860712
1.95328633292
130.256580215
7.69374648716
5.5591292881
5.50744091916
5.5062989713
5.50628096378
5.50628041927
5.50628064031
5.50628100808
5.5062807872
5.50628095964
5.50628093062
5.50628097926
5.50627930198
5.50621810055
130.25026842
130.256578563
130.258674045
130.258721289
130.258722253
130.258721065
130.258721043
130.25872039
130.258720129
130.258719827
130.258718956
130.2587188
130.258719631
130.258719612
130.258724399
130.258733505
5.50608032372
1.95328494428
1.78726934775
1.77977709192
1.77952219874
1.77951538964
1.77951523964
1.7795152368
1.77951523673
1.77951523673
1.77951523671
1.77951523679
1.7795152385
1.77951526874
130.258729679
5.50614129065
1.95329695634
1.78727033111
1.77977711458
1.77952217077
1.77951535978
1.77951520977
1.77951520691
1.77951520683
1.77951520725
1.77951520683
1.77951520692
1.77951520859
1.77951523852
130.258729911
5.50614284965
1.95329747856
1.78727038026
1.77977711567
1.7795221692
1.77951535808
1.7795152081
1.77951520525
1.77951520515
1.77951520518
1.77951520515
1.77951520525
1.77951520692
1.77951523682
130.25872998
5.50614269186
1.95329771136
1.78727040925
1.77977711664
1.77952216916
1.77951535804
1.77951520803
1.77951520519
1.77951520555
1.7795152056
1.77951520509
1.77951520517
1.77951520677
1.77951523675
130.258729969
5.50614329482
1.95329778909
1.78727041875
1.77977711695
1.77952216917
1.77951535802
1.77951520803
1.77951520518
1.77951520508
1.7795152056
1.77951520561
1.77951520524
1.77951520681
1.77951523674
130.258730081
5.50614259034
1.95329752653
1.78727038378
1.7797771158
1.77952216916
1.77951535804
1.77951520804
1.77951520518
1.77951520506
1.77951520512
1.77951520555
1.77951520514
1.7795152068
1.77951523677
130.25873053
5.50614276071
1.95329748078
1.78727038158
1.77977711565
1.77952216919
1.77951535812
1.77951520809
1.77951520524
1.77951520518
1.7795152051
1.77951520556
1.77951520518
1.77951520685
1.77951523682
130.258729565
5.50614252188
1.95329759784
1.78727039757
1.77977711838
1.77952217197
1.77951536098
1.77951521094
1.77951520809
1.77951520805
1.77951520802
1.77951520803
1.77951520808
1.77951520975
1.77951523967
130.258731313
5.50614249777
1.95329762579
1.78727053285
1.77977726807
1.77952232198
1.77951551092
1.77951536091
1.77951535812
1.77951535847
1.77951535806
1.77951535805
1.77951535812
1.77951535977
1.77951538967
130.258731353
5.5061432404
1.95330315631
1.78727726361
1.77978407507
1.77952913288
1.77952232197
1.77952217194
1.77952216916
1.77952216913
1.77952216912
1.7795221691
1.77952216919
1.77952217075
1.77952219873
130.258732423
5.50616368687
1.95350990553
1.78752864234
1.78003885965
1.77978407298
1.77977726817
1.77977711761
1.77977711487
1.77977711496
1.77977711581
1.77977711497
1.77977711572
1.77977711418
1.7797770907
130.258730471
5.50730265863
1.95992575184
1.79494367677
1.7875286137
1.78727721161
1.7872705463
1.7872703805
1.7872703655
1.78727036732
1.78727039713
1.78727036713
1.78727039529
1.78727033463
1.78726932352
130.258684085
5.55900406591
2.11104116993
1.95992558736
1.95350966849
1.95330270368
1.95329766325
1.95329740587
1.95329731911
1.95329734469
1.95329757141
1.95329731426
1.9532975326
1.95329692118
1.95328468631
130.256590015
7.69346183847
5.55900366299
5.50730276082
5.50616405662
5.50614296027
5.50614273005
5.50614267644
5.50614292328
5.50614271803
5.50614309104
5.50614282944
5.50614278162
5.50614138727
5.50607982614
130.250279789
130.256587009
130.258684146
130.258731649
130.258732472
130.258731468
130.258731386
130.258730727
130.258729463
130.258729628
130.258728297
130.258728135
130.258729784
130.258729911
130.258734417
130.258730838
5.50607342746
1.95328474817
1.78726933597
1.77977709076
1.77952219838
1.77951538935
1.77951523938
1.77951523654
1.77951523649
1.77951523651
1.77951523648
1.77951523656
1.77951523828
1.77951526854
130.258721644
5.50613464838
1.95329684542
1.78727033775
1.77977711425
1.77952217045
1.77951535951
1.7795152095
1.77951520668
1.77951520667
1.7795152073
1.77951520668
1.77951520671
1.77951520837
1.7795152383
130.258723865
5.50613615702
1.95329737936
1.78727039035
1.77977711538
1.77952216888
1.77951535784
1.77951520784
1.77951520502
1.77951520491
1.77951520507
1.77951520498
1.77951520503
1.77951520669
1.77951523659
130.258723933
5.50613604807
1.95329756417
1.78727040493
1.7797771157
1.77952216882
1.77951535778
1.77951520778
1.77951520499
1.77951520559
1.77951520565
1.77951520484
1.77951520499
1.77951520667
1.77951523652
130.258720693
5.50613635424
1.95329761847
1.78727040997
1.77977711591
1.77952216882
1.77951535779
1.77951520777
1.77951520495
1.77951520496
1.77951520564
1.77951520565
1.77951520514
1.77951520665
1.77951523651
130.258720881
5.50613594256
1.95329741247
1.78727038814
1.77977711539
1.77952216883
1.77951535781
1.77951520778
1.77951520495
1.77951520492
1.77951520507
1.77951520559
1.77951520503
1.77951520666
1.7795152366
130.258724119
5.50613617723
1.95329738928
1.78727039202
1.77977711547
1.77952216886
1.77951535784
1.77951520783
1.779515205
1.77951520494
1.77951520494
1.7795152056
1.77951520509
1.77951520671
1.77951523662
130.2587266
5.50613585063
1.95329745614
1.78727039409
1.77977711816
1.7795221717
1.77951536068
1.77951521066
1.77951520783
1.77951520782
1.77951520777
1.77951520782
1.77951520784
1.7795152095
1.77951523941
130.258724384
5.50613591064
1.9532975176
1.78727053683
1.77977726804
1.77952232266
1.77951551072
1.77951536063
1.77951535788
1.77951535851
1.77951535783
1.77951535779
1.77951535785
1.77951535952
1.77951538938
130.258724766
5.50613630657
1.95330298667
1.7872772546
1.77978407466
1.77952913314
1.77952232264
1.77952217167
1.77952216884
1.77952216883
1.77952216879
1.77952216879
1.77952216885
1.77952217041
1.77952219838
130.258718346
5.50615719572
1.95350976428
1.78752863571
1.78003885937
1.77978407308
1.77977726769
1.77977711737
1.77977711456
1.7797771145
1.77977711479
1.77977711451
1.77977711471
1.77977711333
1.7797770897
130.258726903
5.50729560818
1.95992557095
1.79494365492
1.78752861067
1.78727721799
1.78727053759
1.7872703776
1.78727037334
1.78727037085
1.78727038804
1.78727037205
1.78727038631
1.78727033012
1.78726931504
130.258671652
5.55899749977
2.11104091675
1.95992539041
1.95350952883
1.9533025982
1.95329749231
1.95329727128
1.95329721287
1.953297232
1.95329738695
1.95329721583
1.95329735544
1.95329676982
1.95328451644
130.256585931
7.69344797916
5.55899751671
5.50729567486
5.50615735212
5.50613620029
5.50613605517
5.50613596623
5.50613618011
5.50613615047
5.50613622642
5.50613615498
5.50613607603
5.50613465336
5.50607320957
130.250262368
130.256576936
130.258679643
130.258723997
130.258722501
130.258720806
130.258724934
130.258723493
130.258726619
130.25872332
130.258725531
130.258725402
130.258722399
130.258723778
130.258731657
130.258732745
5.50604867922
1.95328351289
1.78726926419
1.77977708796
1.77952219854
1.77951538957
1.7795152396
1.77951523677
1.7795152367
1.7795152367
1.77951523671
1.7795152369
1.77951523894
1.77951527159
130.258721719
5.50611130298
1.95329627192
1.78727032749
1.77977711335
1.77952217061
1.77951535973
1.77951520973
1.77951520691
1.77951520686
1.7795152074
1.77951520686
1.77951520692
1.77951520868
1.77951523898
130.258723909
5.50611240773
1.95329684528
1.78727038175
1.77977711456
1.77952216906
1.77951535802
1.77951520806
1.77951520525
1.77951520507
1.77951520526
1.77951520518
1.77951520523
1.77951520689
1.7795152369
130.258723977
5.50611245205
1.95329684488
1.78727037806
1.77977711439
1.779522169
1.779515358
1.779515208
1.77951520518
1.77951520565
1.77951520568
1.77951520495
1.7795152052
1.77951520674
1.77951523672
130.258720767
5.50611172487
1.95329675859
1.78727037123
1.77977711411
1.77952216899
1.77951535797
1.779515208
1.77951520517
1.77951520505
1.77951520567
1.77951520568
1.77951520524
1.77951520686
1.77951523673
130.258720961
5.50611246263
1.95329685288
1.78727037834
1.77977711452
1.77952216898
1.779515358
1.779515208
1.77951520518
1.77951520512
1.77951520516
1.77951520563
1.77951520523
1.77951520688
1.77951523682
130.258724152
5.50611287597
1.95329688393
1.78727038408
1.77977711471
1.77952216904
1.77951535806
1.77951520805
1.77951520523
1.77951520516
1.77951520502
1.77951520567
1.77951520529
1.77951520693
1.77951523685
130.258727969
5.50611202492
1.95329671013
1.78727036798
1.77977711694
1.77952217182
1.77951536088
1.77951521088
1.77951520805
1.77951520804
1.77951520798
1.77951520803
1.77951520807
1.77951520972
1.77951523963
130.258724425
5.50611223153
1.9532969639
1.78727052705
1.77977726744
1.77952232169
1.77951551085
1.77951536078
1.77951535809
1.77951535865
1.77951535805
1.77951535801
1.77951535808
1.77951535975
1.77951538961
130.258724792
5.50611174025
1.95330213961
1.78727721771
1.77978407265
1.77952913305
1.77952232162
1.77952217179
1.77952216902
1.77952216901
1.77952216896
1.77952216898
1.77952216903
1.77952217059
1.77952219855
130.258718246
5.50613370294
1.95350906758
1.78752860996
1.78003885717
1.77978407217
1.77977726523
1.77977711601
1.77977711383
1.77977711363
1.77977711215
1.7797771136
1.77977711222
1.77977711206
1.77977708728
130.258728253
5.50727101803
1.95992467624
1.7949435353
1.7875285834
1.78727720794
1.78727047257
1.78727034796
1.78727036394
1.78727036024
1.78727031714
1.78727036166
1.78727031747
1.78727029322
1.78726924952
130.258671694
5.55897373663
2.11103967008
1.95992424828
1.95350881156
1.95330203438
1.95329646466
1.95329658651
1.95329665854
1.95329666273
1.95329617306
1.95329664457
1.95329619964
1.95329595664
1.95328351764
130.256586797
7.69340286391
5.55897538761
5.50727108416
5.50613285231
5.50611238754
5.50611202183
5.50611208103
5.50611204615
5.50611293411
5.50611159593
5.50611229335
5.50611225147
5.50611069707
5.5060496314
130.250262352
130.256573666
130.258679969
130.258724039
130.258722557
130.25872088
130.258724968
130.258723449
130.258727831
130.258723372
130.258727254
130.258727134
130.258722465
130.258723829
130.258732922
130.258724536
5.50604695365
1.95328361946
1.78726928138
1.77977708894
1.7795221994
1.77951539047
1.77951524048
1.77951523767
1.77951523738
1.77951523723
1.77951523782
1.77951524028
1.77951526994
1.77951566508
130.258726646
5.50610893023
1.95329620988
1.78727032532
1.77977711353
1.7795221713
1.7795153606
1.77951521062
1.77951520779
1.77951520741
1.77951520699
1.77951520732
1.77951520769
1.7795152115
1.77951527276
130.25872684
5.5061105587
1.95329680099
1.78727037842
1.77977711475
1.77952216986
1.77951535865
1.77951520893
1.77951520609
1.77951520542
1.77951520591
1.77951520583
1.77951520584
1.77951520761
1.77951523944
130.258726884
5.50611062769
1.95329677881
1.78727037438
1.77977711454
1.77952216982
1.77951535883
1.77951520886
1.77951520571
1.779515205
1.77951520525
1.77951520518
1.77951520595
1.77951520683
1.77951523737
130.258726823
5.50610987478
1.95329669779
1.78727036769
1.77977711428
1.77952216976
1.77951535859
1.77951520886
1.77951520601
1.77951520507
1.77951520502
1.77951520492
1.77951520577
1.77951520762
1.77951523747
130.25872691
5.50611066157
1.95329680244
1.78727037704
1.77977711464
1.77952216962
1.7795153588
1.77951520889
1.77951520606
1.77951520585
1.77951520544
1.77951520499
1.77951520591
1.77951520768
1.77951523767
130.258726665
5.5061108968
1.95329683966
1.78727038079
1.77977711461
1.77952216979
1.77951535894
1.77951520893
1.77951520612
1.77951520599
1.77951520503
1.77951520526
1.77951520594
1.77951520773
1.77951523772
130.258716201
5.50611023138
1.95329667065
1.7872703638
1.77977711638
1.77952217238
1.77951536172
1.77951521172
1.7795152089
1.77951520883
1.77951520882
1.77951520884
1.77951520894
1.7795152106
1.77951524052
130.258727475
5.50611045777
1.95329690544
1.787270525
1.77977726725
1.77952232166
1.77951551138
1.77951536122
1.77951535886
1.77951535801
1.77951535885
1.77951535888
1.77951535896
1.77951536064
1.77951539051
130.258727033
5.50610985334
1.95330207144
1.78727721306
1.77978407235
1.77952913307
1.7795223216
1.77952217234
1.77952216979
1.77952216975
1.77952216981
1.7795221698
1.77952216988
1.7795221714
1.7795221994
130.258727004
5.50613194415
1.95350900184
1.78752860572
1.780038857
1.77978407198
1.77977726523
1.77977711566
1.77977711365
1.77977711358
1.77977711306
1.77977711362
1.77977711317
1.77977711201
1.779777088
130.258716003
5.50726917754
1.95992460367
1.79494353319
1.78752858167
1.78727720637
1.78727047646
1.78727034664
1.787270361
1.78727035513
1.7872703367
1.78727036095
1.78727033747
1.78727029386
1.7872692573
130.258677916
5.55897192269
2.11103954261
1.95992421487
1.95350875301
1.95330198347
1.95329644645
1.95329653171
1.95329660201
1.95329658942
1.95329626975
1.95329660805
1.95329629163
1.95329593825
1.95328348806
130.25657363
7.69339883966
5.55897293787
5.5072692762
5.50613110884
5.50611062125
5.50611018407
5.50611024494
5.5061102085
5.50611097265
5.50610984455
5.506110543
5.50611055405
5.50610895988
5.50604775133
130.250271964
130.256575859
130.258666779
130.258727157
130.258727787
130.258727634
130.258727614
130.258721872
130.258716566
130.258726428
130.258716416
130.258720789
130.25872671
130.258726977
130.258728151
130.258724572
5.50604211256
1.9532836349
1.78726928362
1.77977708842
1.77952219828
1.77951538931
1.77951523945
1.77951523708
1.77951523747
1.77951524212
1.77951529855
1.77951560459
1.77951909466
1.77956364586
130.258715922
5.5061016379
1.95329594057
1.78727031367
1.77977711274
1.77952217124
1.77951535955
1.77951520949
1.77951520668
1.77951520737
1.77951520705
1.77951520987
1.77951522803
1.77951549801
1.77951976371
130.258715978
5.50610485635
1.9532966203
1.78727037134
1.77977711406
1.77952216881
1.77951535786
1.77951520782
1.77951520505
1.77951520534
1.77951520556
1.77951520573
1.77951520659
1.77951522245
1.77951549932
130.258716174
5.50610504675
1.95329649341
1.78727035749
1.77977711361
1.77952216869
1.77951535776
1.77951520779
1.77951520572
1.77951520495
1.77951520496
1.77951520516
1.77951520566
1.77951520765
1.77951524706
130.258716054
5.50610432813
1.9532964524
1.78727035406
1.77977711345
1.7795221687
1.77951535779
1.77951520778
1.7795152052
1.77951520546
1.77951520499
1.77951520486
1.77951520522
1.77951520729
1.77951523743
130.258716116
5.50610521068
1.95329660592
1.78727037028
1.77977711402
1.77952216871
1.77951535777
1.77951520776
1.779515205
1.77951520498
1.77951520543
1.77951520489
1.7795152053
1.77951520667
1.77951523706
130.25871894
5.50610496876
1.95329665492
1.78727037462
1.7797771144
1.77952216878
1.7795153578
1.77951520787
1.77951520554
1.77951520501
1.77951520519
1.77951520493
1.77951520511
1.77951520686
1.77951523658
130.2587162
5.50610511371
1.95329652965
1.78727036002
1.77977711665
1.77952217165
1.77951536064
1.77951521063
1.77951520787
1.77951520804
1.77951520778
1.77951520775
1.77951520781
1.77951520948
1.77951523938
130.258716641
5.50610497685
1.95329662021
1.78727051277
1.77977726707
1.77952232282
1.77951551075
1.7795153607
1.77951535818
1.77951535776
1.77951535812
1.77951535776
1.77951535781
1.77951535949
1.77951538934
130.258716976
5.50610385959
1.95330177534
1.7872771951
1.77978407218
1.77952913278
1.77952232275
1.77952217159
1.77952216873
1.77952216936
1.7795221687
1.77952216868
1.77952216874
1.77952217029
1.77952219823
130.258717997
5.50612635266
1.95350871091
1.78752858822
1.78003885635
1.77978407187
1.779777265
1.77977711557
1.77977711328
1.77977711236
1.77977711257
1.77977711297
1.77977711268
1.77977711182
1.77977708743
130.25871593
5.50726392114
1.95992428945
1.79494351851
1.78752856998
1.78727719635
1.78727047168
1.78727034051
1.78727035434
1.78727032528
1.78727033765
1.78727035148
1.78727033837
1.78727029048
1.78726925355
130.258667193
5.55896599958
2.11103901696
1.95992404935
1.95350847081
1.95330172963
1.95329632106
1.95329626211
1.9532962887
1.95329622232
1.9532962761
1.95329643387
1.95329630222
1.95329582283
1.9532833453
130.256573447
7.69338829871
5.55896535516
5.5072638512
5.50612538572
5.50610520282
5.50610425782
5.50610460443
5.50610482178
5.50610509719
5.50610489947
5.50610560281
5.50610559185
5.50610397328
5.50604209272
130.250260285
130.256579033
130.25866664
130.258716458
130.258717093
130.258716935
130.258716505
130.258721983
130.258716184
130.258716239
130.258716423
130.258720826
130.258715981
130.258715945
130.258728184
130.258732644
5.50604128129
1.95328358386
1.78726927961
1.77977708834
1.77952219824
1.77951538926
1.77951523942
1.77951523785
1.77951526224
1.77951575671
1.77952162519
1.77955383078
1.77988388146
1.78377031196
130.258715588
5.50610091412
1.9532959056
1.78727031001
1.7797771126
1.77952217137
1.7795153595
1.77951520943
1.77951520668
1.77951520859
1.77951522978
1.77951550014
1.77951754748
1.77954569128
1.77998167961
130.258715616
5.50610424274
1.95329659135
1.7872703673
1.77977711387
1.77952216876
1.77951535783
1.77951520777
1.77951520502
1.77951520556
1.77951520636
1.77951521689
1.7795153104
1.77951689457
1.77954429778
130.25871572
5.50610437087
1.95329645905
1.78727035598
1.77977711343
1.77952216863
1.77951535773
1.77951520776
1.77951520602
1.7795152058
1.77951520534
1.77951520573
1.77951520902
1.7795152699
1.77951637
130.25871567
5.50610307123
1.95329643377
1.78727035028
1.77977711315
1.77952216864
1.77951535776
1.77951520771
1.77951520495
1.77951520526
1.77951520617
1.77951520589
1.77951520523
1.77951520894
1.7795152685
130.258715703
5.50610426909
1.95329657089
1.7872703671
1.77977711381
1.77952216866
1.77951535774
1.77951520771
1.77951520493
1.77951520494
1.77951520553
1.77951520612
1.77951520531
1.77951520667
1.77951523769
130.25871855
5.5061040591
1.95329660867
1.78727037003
1.77977711406
1.77952216871
1.77951535776
1.77951520781
1.77951520514
1.77951520495
1.77951520522
1.77951520523
1.77951520509
1.77951520684
1.77951523657
130.258724455
5.50610421464
1.95329648972
1.78727035998
1.77977711622
1.77952217152
1.7795153606
1.77951521059
1.77951520782
1.77951520804
1.77951520771
1.77951520769
1.77951520776
1.77951520943
1.77951523934
130.258715996
5.50610430324
1.95329659469
1.78727051251
1.77977726693
1.77952232162
1.77951551061
1.77951536068
1.77951535819
1.77951535899
1.77951535813
1.77951535771
1.77951535776
1.77951535943
1.7795153893
130.258715842
5.50610314475
1.95330174056
1.78727719223
1.77978407168
1.7795291327
1.77952232188
1.7795221715
1.7795221687
1.77952216938
1.77952216864
1.77952216863
1.77952216867
1.77952217026
1.77952219818
130.258716699
5.50612572593
1.95350867101
1.7875285854
1.78003885604
1.77978407123
1.77977726393
1.77977711554
1.77977711306
1.77977711248
1.77977711217
1.77977711291
1.77977711222
1.77977711162
1.77977708635
130.258726939
5.50726313403
1.95992424963
1.79494348715
1.78752856783
1.78727719181
1.78727045009
1.78727034181
1.78727034818
1.78727032482
1.78727032941
1.78727034758
1.78727032966
1.78727028114
1.78726922705
130.258666454
5.55896507932
2.11103888322
1.95992383933
1.95350844076
1.95330171309
1.95329617034
1.95329624389
1.95329629981
1.95329619914
1.95329621979
1.95329639989
1.95329624906
1.95329568036
1.95328311205
130.256584417
7.69338662844
5.55896457811
5.50726288983
5.50612481893
5.5061042542
5.50610341975
5.50610396939
5.50610395125
5.50610422576
5.50610402109
5.50610472162
5.50610467609
5.50610190742
5.50604141876
130.250259408
130.256578786
130.258676711
130.258715787
130.25871645
130.258716364
130.258715946
130.258727083
130.258726265
130.258715717
130.258726847
130.258726849
130.258715632
130.258715608
130.258732614
130.258721271
5.50603910922
1.95328344719
1.78726927397
1.77977708843
1.77952219956
1.77951539033
1.77951524205
1.77951530767
1.77951729431
1.77955663904
1.78000605308
1.78250420558
1.80366705586
2.01693364204
130.258715779
5.50609893002
1.9532957408
1.78727029895
1.77977711248
1.77952217049
1.7795153608
1.77951521056
1.77951521104
1.7795153087
1.77951729879
1.77954210613
1.77971919944
1.78180214771
1.81210986406
130.258715815
5.50610317715
1.95329647441
1.78727035702
1.77977711385
1.77952217
1.77951535858
1.77951520914
1.77951520572
1.77951521006
1.77951529415
1.77951637412
1.77952491949
1.77965424813
1.78178075874
130.258716017
5.50610328375
1.95329639195
1.78727035333
1.77977711372
1.77952217003
1.77951535909
1.7795152091
1.77951520544
1.7795152059
1.7795152084
1.77951524454
1.77951553334
1.77952062647
1.77960993284
130.258715848
5.50610185946
1.95329636153
1.78727035083
1.77977711343
1.7795221699
1.7795153582
1.77951520906
1.77951520548
1.77951520527