/*--------------------------------*- C++ -*----------------------------------*\
| =========                 |                                                 |
| \\      /  F ield         | OpenFOAM: The Open Source CFD Toolbox           |
|  \\    /   O peration     | Version:  2406                                  |
|   \\  /    A nd           | Website:  www.openfoam.com                      |
|    \\/     M anipulation  |                                                 |
\*---------------------------------------------------------------------------*/
FoamFile
{
    version     2.0;
    format      ascii;
    arch        "LSB;label=32;scalar=64";
    class       volScalarField;
    location    "0.01";
    object      p;
}
// * * * * * * * * * * * * * * * * * * * * * * * * * * * * * * * * * * * * * //

dimensions      [0 2 -2 0 0 0 0];

internalField   nonuniform List<scalar> 
29767
(
0.128698403825
0.105593134362
0.112727979856
0.101755343665
0.105368786311
0.0999885441922
0.101440415182
0.0985934084348
0.0991708246833
0.0975933306834
0.0978119681887
0.0969542505076
0.0970333801202
0.0966504618173
0.0966814649915
0.128664252744
0.105561717304
0.112701657329
0.101737155505
0.10535277375
0.0999764967106
0.101429313763
0.098584126664
0.0991614984864
0.097585005893
0.097803567715
0.096946398719
0.0970255677228
0.0966429532642
0.0966740475228
0.129091580399
0.105981843538
0.113111227029
0.102130930033
0.105740175657
0.10035988299
0.101811161201
0.0989657152619
0.0995422594851
0.0979668560136
0.098185087554
0.0973288812926
0.0974077767813
0.0970257675442
0.0970564027055
0.12897121168
0.105869591827
0.113010996155
0.102054358639
0.105666653041
0.100298236132
0.10174919033
0.0989087502564
0.099483675135
0.0979110286593
0.098128089264
0.0972733939354
0.097351636083
0.0969705140657
0.0970006843167
0.129883536148
0.106767832199
0.113893800834
0.102912284263
0.106515938261
0.101147199385
0.102594846117
0.0997582393782
0.100332605918
0.0987636166864
0.0989809533796
0.0981283827546
0.0982068424061
0.0978267276509
0.0978565879249
0.129637371836
0.106535077584
0.113665075468
0.102718279401
0.106312707543
0.100961151096
0.102396853079
0.0995682585817
0.100135167029
0.0985698578201
0.0987835943936
0.0979327242636
0.0980096822287
0.0976305046443
0.0976595213373
0.131181141732
0.108061388105
0.115191309857
0.104236471133
0.107829401245
0.102498985114
0.10393442186
0.101123446619
0.101692116733
0.100136264866
0.100352301127
0.0995051160064
0.099583588742
0.0992055687635
0.0992347515872
0.130733985026
0.107631585304
0.114703285299
0.103778387722
0.107312450816
0.101997989964
0.10339342331
0.100590638029
0.101139495648
0.0995866595463
0.0997950679374
0.0989486009434
0.0990249971388
0.0986472679881
0.0986756178868
0.133191140699
0.110095797185
0.117247658778
0.106424625806
0.109973627337
0.104748967793
0.10615173048
0.103395312928
0.10395130051
0.1024160824
0.102631341973
0.101788750594
0.10186913212
0.101491213087
0.101520673695
0.132417892717
0.109324906216
0.116169350967
0.105321239942
0.108675154161
0.103458058534
0.104760714951
0.102012425458
0.102528356098
0.100993805247
0.101196957519
0.100351992203
0.100431622461
0.100052926464
0.100082690688
0.136294671734
0.113456685543
0.120602256721
0.110256244002
0.113638844122
0.108677283232
0.109987024909
0.107328474192
0.107859630553
0.106346167808
0.10656566292
0.105720307492
0.105811085828
0.105428390876
0.105461637248
0.135027923952
0.111934385995
0.117874814058
0.107415008555
0.11026385066
0.105331210987
0.10644583666
0.103802641459
0.10427493807
0.102760451906
0.10297066833
0.102117160679
0.102210827327
0.101822145546
0.101857262385
0.141182405082
0.119985473045
0.126656870122
0.117876355252
0.120611342
0.116180694314
0.117270039546
0.114728622226
0.115230522872
0.113707870504
0.1139524358
0.113073930513
0.113190932298
0.112786357176
0.112829395155
0.139570934787
0.11642026348
0.119988679632
0.111938958733
0.1134687994
0.109339131907
0.110121187574
0.107659814646
0.108103718448
0.106580907211
0.106829724701
0.105935692037
0.106064903429
0.105649649867
0.105697912907
0.148124172533
0.13957148155
0.141186349224
0.135033168285
0.136307460193
0.132432705671
0.133217129274
0.130762660383
0.131223865409
0.129683461435
0.129945623787
0.129037366618
0.129174638682
0.12875203902
0.128802996928
0.105883887457
0.103420028441
0.104160706956
0.100659517087
0.101555666439
0.0989184845525
0.0994857162441
0.0976953647458
0.0979870326744
0.0968396748558
0.0969686259665
0.0962914139985
0.0963435372254
0.0960296370731
0.0960528024344
0.105855787013
0.103393687407
0.104139138475
0.100645352324
0.101544266047
0.0989103519084
0.0994784350793
0.0976901233026
0.097982037685
0.0968356450764
0.0969647484433
0.0962879701787
0.0963403059627
0.0960265440616
0.0960499657871
0.106216723412
0.10374732284
0.104484587702
0.100975624269
0.101869597503
0.0992293075381
0.099795445154
0.0980068172127
0.0982980015413
0.0971521813994
0.0972810928588
0.0966049074704
0.0966571065148
0.0963437573178
0.0963668259636
0.106119876977
0.103655715164
0.104405899774
0.100917982234
0.101818404031
0.0991865109304
0.0997543354946
0.0979712746618
0.0982621566287
0.0971189128213
0.0972474874832
0.0965724315176
0.0966245277063
0.0963116247853
0.0963346797684
0.106866475948
0.104386980468
0.105123353904
0.10160906385
0.102502251722
0.0998618161952
0.100428281819
0.0986460338439
0.0989367127517
0.0977952950166
0.0979243482409
0.0972505095468
0.0973030421594
0.096990748093
0.0970136677336
0.106681365219
0.104210704504
0.104962571732
0.101479458093
0.102374357171
0.0997484673058
0.100311459951
0.0985362926308
0.0988237213252
0.0976854582088
0.0978129226639
0.0971403020247
0.0971923063891
0.0968804458672
0.0969031143832
0.10787069009
0.105375910681
0.106114489213
0.102608024449
0.103498630362
0.100875897812
0.10143894962
0.099671072786
0.0999604314037
0.0988266510086
0.0989565102758
0.0982857065333
0.098339577925
0.098028293157
0.0980513713997
0.10757122141
0.105089404731
0.105831478494
0.102356606177
0.103226807828
0.100621686429
0.101166152179
0.0994061743661
0.0996856791837
0.0985545250692
0.0986810054943
0.0980106765814
0.0980639536076
0.0977525200694
0.0977753730681
0.109275884716
0.106763348261
0.107503460216
0.104043093905
0.104928777176
0.102356389881
0.102908795564
0.101169083893
0.101455884313
0.100332006413
0.100464907372
0.0997953515119
0.0998535621947
0.0995417738438
0.0995662001134
0.108844090391
0.106350558827
0.107041826643
0.103605914656
0.104411124947
0.101863165528
0.102367428248
0.100636079765
0.100904231548
0.0997809223447
0.0999101607672
0.099239713649
0.0992993295739
0.0989860564079
0.0990109393599
0.111106804357
0.108576641275
0.109335458613
0.106030408544
0.10688140692
0.104413873411
0.104942232894
0.103243616398
0.103528975
0.102408797258
0.102552172633
0.101873220419
0.101940859915
0.101621142904
0.10164897938
0.110568846956
0.108091842794
0.108636204583
0.105356966466
0.106037680984
0.103615999971
0.104063927229
0.102380944899
0.102645851094
0.101521613778
0.101666582662
0.100980606127
0.101054503398
0.100730032414
0.100760387697
0.113095343166
0.11075453109
0.11150723507
0.108638354511
0.109344934003
0.10705404191
0.107526325906
0.105857762168
0.106154199785
0.105006493781
0.105182548758
0.104470072972
0.104564931976
0.104225129756
0.104262845517
0.112718944844
0.110371734505
0.110757549238
0.108096571283
0.10858853011
0.106364998732
0.106788507885
0.105117873629
0.105417843711
0.104256774564
0.104448383707
0.10372201185
0.103829848326
0.103481757764
0.103524288041
0.11431819691
0.112719301211
0.113098875872
0.110573948912
0.111119138235
0.108858875123
0.109301415443
0.107599998197
0.107913012857
0.106727706058
0.106928246805
0.10618641169
0.106299584947
0.105944061995
0.105988447342
0.10631742889
0.104077680021
0.104568489819
0.101224517749
0.101961793296
0.0993135977332
0.0997809626337
0.0979500226486
0.0981745857629
0.0969861461992
0.0970780335068
0.096367014288
0.0964068369474
0.0960677468422
0.0960990698639
0.106294575092
0.104057121775
0.10455308165
0.101217362477
0.101957584662
0.0993141673208
0.0997820152338
0.0979533121227
0.0981781863396
0.0969909808039
0.0970832020432
0.0963729884253
0.096413215398
0.0960747199963
0.0961063790658
0.106666799959
0.104423672342
0.104909472938
0.101559748015
0.102293254279
0.0996472705609
0.100110055863
0.0982812891744
0.0985040880806
0.0973178043957
0.097408777834
0.0966996102576
0.0967385775071
0.0964010358034
0.0964312198452
0.106586874321
0.104350229815
0.104850615311
0.101524842949
0.102265274193
0.0996335022545
0.100096119939
0.0982743609399
0.0984967568509
0.0973146559192
0.0974050402995
0.0966989323771
0.0967370145381
0.0964020013265
0.0964307661968
0.107355968016
0.105108811371
0.105590302342
0.102240399917
0.102969342453
0.100334784011
0.100790095265
0.0989700071767
0.0991898937217
0.0980098174021
0.0980993560953
0.0973946568299
0.0974320175852
0.0970979610456
0.0971255654673
0.107200736683
0.104962833122
0.10546477844
0.102149977718
0.102884431627
0.100267444341
0.100721404408
0.0989105383647
0.0991282852568
0.0979533835256
0.0980413118974
0.0973400599742
0.0973758245038
0.0970446625161
0.0970700785542
0.108424659196
0.106174780424
0.106654477074
0.103317453039
0.104041288256
0.10142861777
0.101878314615
0.100074733325
0.10029233926
0.0991219824254
0.0992112024398
0.098511973216
0.0985485764245
0.0982182862628
0.0982431828179
0.108171845741
0.105930406828
0.106423899616
0.103123772294
0.103838572781
0.101242345893
0.10168236043
0.0998867818696
0.100098472784
0.0989314966897
0.099018113606
0.0983201767969
0.098355100526
0.0980262746978
0.0980491193276
0.109917983384
0.107675086664
0.108159711999
0.104868887706
0.105580930363
0.10301530784
0.103456735354
0.101679998226
0.101896827641
0.10073716446
0.10082989069
0.10013366501
0.10017293661
0.0998440872653
0.0998677091721
0.109558718741
0.107315881227
0.107774358959
0.10450716427
0.10517304068
0.102613902888
0.103031579857
0.101258410452
0.101465397184
0.100304096531
0.100394963265
0.0996942435156
0.0997323050987
0.0994009033136
0.0994232562447
0.111838706533
0.109644534964
0.110121272965
0.106975742348
0.107647790485
0.105173206247
0.105595872774
0.1038533283
0.104074757731
0.102917824499
0.103024076346
0.102320595541
0.102370964453
0.102037069441
0.102063104098
0.111427618698
0.109199804206
0.109580409784
0.106419519426
0.106985694917
0.104518053422
0.104894617883
0.103150499246
0.103362883796
0.102196800182
0.102308354539
0.101594926251
0.10165168718
0.101312436027
0.101340515591
0.114000705147
0.111975271423
0.112403915028
0.109581428793
0.110131869124
0.107785875896
0.108185284467
0.106450498791
0.106698734048
0.105510483218
0.105655950367
0.104918464056
0.104998112222
0.104644927687
0.104680573305
0.113714273602
0.111606716535
0.111979263312
0.109204359795
0.109658742677
0.107330848226
0.107704483821
0.105960847563
0.106223314197
0.105012947364
0.105179311247
0.104423082397
0.104517661668
0.104154427802
0.1041954213
0.11555166247
0.11371419706
0.114004849435
0.111432198352
0.111852804903
0.109573544102
0.109946937982
0.10820182477
0.108472294733
0.107249920877
0.107425066806
0.106658291982
0.106758920438
0.106389975681
0.106432937261
0.0979196659127
0.0975564225778
0.0976985101998
0.0969055855834
0.0970570533839
0.0960543871093
0.096190680686
0.0953073755295
0.0953868684724
0.0947226905265
0.094757628843
0.0943257928949
0.0943409716097
0.0941310208992
0.0941449575858
0.0979058220089
0.097543812462
0.097689444028
0.096901678916
0.0970555870704
0.0960557284609
0.0961932491375
0.0953114252196
0.0953917097915
0.0947282103557
0.0947639245822
0.0943321714244
0.0943483306571
0.09413790132
0.0941530946737
0.0981535325669
0.0977898160322
0.097928275891
0.0971311049372
0.0972802069246
0.0962760448421
0.0964115231849
0.0955282444669
0.0956077681913
0.0949439870004
0.0949793966032
0.0945478604233
0.0945635522275
0.0943536737515
0.0943678509687
0.0981042034431
0.0977444422541
0.0978926412361
0.0971103523057
0.0972657827412
0.0962694617648
0.0964076972495
0.0955285124428
0.0956093836886
0.0949474993184
0.0949838961023
0.0945528816597
0.0945695820729
0.094359299766
0.094374592998
0.0985951760356
0.0982315272494
0.0983667492393
0.0975670521056
0.0977144182435
0.0967104438016
0.0968458901688
0.0959642574972
0.0960445419956
0.095382044545
0.0954187590616
0.0949877115304
0.0950046116349
0.0947945942054
0.094809311013
0.0985038438958
0.0981479876802
0.0982965768346
0.0975195506512
0.0976746697247
0.0966819818341
0.0968198526003
0.0959436637038
0.0960249585541
0.0953648270255
0.0954023940404
0.0949720484492
0.0949897671
0.0947796061014
0.0947949404055
0.0992335145517
0.0988696915757
0.0990028205044
0.0982034714458
0.0983503930523
0.097349409003
0.0974851775025
0.0966067482667
0.0966888133769
0.0960277552226
0.0960671041174
0.0956360947114
0.0956552154448
0.0954447077477
0.0954601435901
0.0990951835105
0.0987462276235
0.0988913969922
0.0981183627639
0.0982697487982
0.0972808816382
0.0974156683952
0.0965422776975
0.0966240661647
0.0959644527457
0.0960046253023
0.0955735634701
0.0955936599747
0.0953827678322
0.0953985303912
0.10003465294
0.0996680770538
0.0998015664165
0.099004830154
0.0991529756814
0.0981576270083
0.0982937440015
0.0974182549446
0.0975043967796
0.0968425175413
0.0968874798913
0.0964538917032
0.096477535612
0.0962650429661
0.0962818471474
0.0998588841903
0.0995192896582
0.0996547355398
0.0988823616914
0.0990250089563
0.0980405664079
0.0981706951263
0.0972971193864
0.0973821475067
0.0967187777685
0.0967658701958
0.0963300458251
0.0963559787948
0.0961419033195
0.0961593464721
0.100917234143
0.100537688102
0.100674359563
0.0998713190221
0.100019727477
0.099027612396
0.0991682464372
0.0982881860412
0.0983848256005
0.0977131357491
0.0977710227021
0.0973274671696
0.0973608409197
0.0971423046451
0.0971622937542
0.100750339668
0.100411953639
0.100536498209
0.0997486361622
0.0998797074057
0.0988935277215
0.099028515589
0.0981455559771
0.0982463911744
0.0975668968201
0.0976321411325
0.0971808806436
0.0972201020335
0.0969970453854
0.0970189399298
0.101713704842
0.101298222502
0.101407959155
0.100538606431
0.100684928183
0.0996679926081
0.0998273082569
0.0989205584714
0.099047602299
0.0983456902544
0.0984335368196
0.097964740379
0.0980188174434
0.0977861908097
0.0978132802337
0.10165911407
0.101253214734
0.101301409249
0.100416812189
0.100550652753
0.0995348685307
0.0996958698008
0.0987775286489
0.0989163480306
0.0981990878396
0.0982999791103
0.0978183163592
0.0978817990017
0.0976420776497
0.0976724067673
0.102162509881
0.101659393855
0.101717518564
0.100755648821
0.100930927694
0.0998750032899
0.10006335239
0.0991271714384
0.0992813376191
0.0985558832779
0.0986650830766
0.0981792916061
0.0982472394634
0.0980055731532
0.0980375909254
0.0983214061434
0.0980253520737
0.0980155172577
0.097096894385
0.0971043432093
0.0960432765547
0.096078088978
0.0951490911103
0.0951669503896
0.0944520256015
0.094465288697
0.0939752551265
0.0940056101758
0.0937343731213
0.0937957642059
0.0983146431509
0.098020151453
0.0980142113545
0.0971016813955
0.0971118521368
0.0960543078775
0.0960905988462
0.0951638404789
0.095182830568
0.0944697586187
0.0944843587869
0.0939963443369
0.0940283092299
0.0937593021602
0.0938219283462
0.0985704932452
0.0982729747475
0.0982599411119
0.0973370563412
0.0973416470169
0.0962803713906
0.0963130369075
0.0953858466282
0.095401795015
0.0946897538569
0.0947007623528
0.0942143222698
0.0942416722409
0.0939745369991
0.0940321512377
0.0985455010983
0.0982525930232
0.0982506458734
0.09734635141
0.0973583010094
0.0963090201936
0.0963447694419
0.0954270997317
0.0954436199913
0.094741121737
0.0947506294306
0.0942748008559
0.0942982631284
0.0940420870202
0.0940928742444
0.0990488370924
0.0987500738744
0.0987353266134
0.0978109819299
0.0978135946489
0.0967562307777
0.0967864822571
0.0958663500788
0.0958795960784
0.0951761364763
0.0951829525021
0.0947064602978
0.0947270161178
0.0944706410651
0.0945185202939
0.0989995392793
0.0987080189663
0.0987101524006
0.0978142255918
0.0978273358135
0.0967871946324
0.0968214514669
0.0959143908861
0.095928492063
0.0952370370164
0.0952418710112
0.0947779640886
0.0947932244556
0.0945494790511
0.0945882647509
0.0997437035031
0.099444171827
0.0994306382791
0.0985089348117
0.0985118689341
0.0974622399389
0.0974912211907
0.0965810948152
0.0965937712797
0.0959005604453
0.0959047138861
0.0954393021723
0.0954534856475
0.0952089753521
0.095246034807
0.0996666389336
0.0993761652565
0.0993825733911
0.0984944621377
0.098508570585
0.0974770703467
0.0975102713972
0.0966114186719
0.0966260543267
0.09594262227
0.0959461004169
0.095490304121
0.0955006149032
0.0952659392897
0.0952953182388
0.100616704599
0.100317242676
0.100309670313
0.0993972693854
0.0994044731793
0.0983662658803
0.0983986684099
0.0974964733219
0.0975137363232
0.0968272142738
0.0968343056981
0.0963757006537
0.0963878020587
0.0961516599147
0.0961804287641
0.100521275694
0.100231506957
0.100244563504
0.0993640762268
0.0993813388822
0.0983565773867
0.0983940236813
0.097497468438
0.0975183842679
0.0968347128718
0.0968440869018
0.0963889433562
0.0964005667097
0.0961693598375
0.096193534152
0.101574644382
0.101275095257
0.101279019561
0.100385226437
0.100403534919
0.099376672171
0.0994231627984
0.0985201063375
0.0985532521967
0.0978604062225
0.0978805901254
0.0974175051098
0.0974359610253
0.0972007522094
0.0972262432391
0.101495679222
0.101205607227
0.101241967088
0.100367180605
0.100400456183
0.0993771014463
0.099433472909
0.098527201057
0.0985709918932
0.0978725777423
0.0979021094037
0.0974346514995
0.0974582040058
0.0972220939638
0.0972468576904
0.102426893227
0.102113895486
0.102133152678
0.101241549006
0.101292733327
0.100256141612
0.100342253756
0.0994120245663
0.0994864446108
0.0987626766968
0.0988173281732
0.0983303096011
0.0983696249411
0.0981234799059
0.0981528397561
0.102421199061
0.102102831767
0.102119634542
0.101210499716
0.101294020497
0.100248637618
0.100355475918
0.0994120363003
0.0995064404201
0.0987680915233
0.098839494283
0.0983408616451
0.0983908468865
0.0981386813359
0.0981712101074
0.102858910636
0.102420663975
0.102432585485
0.101500277683
0.101593339781
0.100537962392
0.100654394471
0.0997017142203
0.0998049989268
0.0990583463782
0.0991368078335
0.0986320183241
0.0986865136826
0.0984310239955
0.0984651827071
0.0927788723373
0.0927357531951
0.09278218273
0.0925610701967
0.0925593895183
0.0921742632094
0.0921699212377
0.0917642589746
0.091751020672
0.091407425843
0.0913883147034
0.0911508349545
0.0911363870245
0.0910242881956
0.0910240970335
0.092776428877
0.0927341281432
0.0927827548433
0.0925650392018
0.092565454177
0.0921824296317
0.0921796129239
0.0917751019369
0.0917634502202
0.0914199399873
0.0914031608103
0.0911639167233
0.0911534942285
0.0910368029994
0.091043140186
0.0929295201826
0.092885818295
0.0929298977396
0.0927059657342
0.0927036364805
0.0923172355479
0.0923135145326
0.0919072653397
0.0918959524792
0.091551974551
0.0915354316734
0.0912972322036
0.0912854856377
0.0911720170739
0.0911738401094
0.092916653994
0.0928752838937
0.0929255121068
0.0927113122304
0.0927144932124
0.0923341395258
0.0923339806516
0.0919308220913
0.0919224557046
0.091579031453
0.0915658935026
0.0913249061894
0.0913182041779
0.0911981803868
0.0912076385224
0.0932060538953
0.0931620626356
0.0932034434646
0.0929775835692
0.0929752426305
0.0925885920089
0.0925872484434
0.0921804317743
0.0921729681742
0.0918282583924
0.0918165958277
0.0915759922319
0.0915694625894
0.0914516316495
0.0914581694938
0.0931804169692
0.0931399879166
0.0931906401892
0.0929793601188
0.0929851334678
0.0926072463808
0.0926109624761
0.0922083533486
0.0922043025395
0.0918612540927
0.0918527731647
0.0916109344941
0.0916081322358
0.0914862666191
0.0914976908696
0.0935834361346
0.0935392271782
0.0935775069786
0.0933496271694
0.0933480560999
0.0929613847925
0.0929648618151
0.0925567022706
0.0925541746367
0.0922079530513
0.0922022523042
0.0919590366226
0.0919580949784
0.0918362059674
0.0918468759652
0.0935449505612
0.093505024783
0.093554501009
0.093343309591
0.0933511139716
0.092973017178
0.0929825460862
0.0925787326347
0.0925799603414
0.092235141616
0.0922325638539
0.0919890568326
0.0919907875629
0.09186722523
0.0918801718597
0.0940176585886
0.0939721958048
0.0940074147953
0.0937738824901
0.093774927244
0.0933847471631
0.0933952596862
0.0929843215525
0.0929892412962
0.0926388437387
0.0926402900271
0.0923930031721
0.0923979335949
0.0922723648077
0.0922860949487
0.0939736718275
0.093932346229
0.0939798627303
0.0937602385478
0.0937707762508
0.0933855092578
0.0934026470402
0.0929935485992
0.0930042377416
0.0926541287092
0.092660060918
0.0924116354236
0.0924192442179
0.0922926052189
0.092307151791
0.0944414104854
0.0943899009745
0.0944241138134
0.0941706796164
0.0941781258234
0.0937728600693
0.0937941325502
0.0933729299151
0.0933913830033
0.0930324320244
0.0930464764741
0.0927917463757
0.0928049285636
0.0926746125544
0.0926909560853
0.0944112632058
0.0943632334137
0.0944122259276
0.0941637455782
0.0941819171312
0.0937740232155
0.0938045113225
0.0933772838722
0.0934045038553
0.0930389751976
0.0930601560365
0.0928004173649
0.0928182551133
0.092685442662
0.0927030548543
0.0947681008079
0.0946954668231
0.0947232722225
0.0944143437289
0.094437317574
0.0939956648443
0.0940396339062
0.0935901676396
0.0936334997441
0.0932515244262
0.0932868695493
0.0930154618932
0.0930426626627
0.0929035390966
0.0929243273841
0.0947767771278
0.0946968489926
0.0946996095217
0.0943688960192
0.0944063668046
0.0939513044961
0.0940073800958
0.0935438565072
0.0935982136607
0.0932040584372
0.0932484306495
0.0929683313971
0.0930014479486
0.0928578448322
0.0928806335676
0.0949182013434
0.0947769344567
0.0947728385776
0.0944173614691
0.0944583982513
0.0939930748337
0.0940533304196
0.0935841803962
0.0936428590424
0.0932448326564
0.0932928297897
0.0930099959358
0.0930455082752
0.0929003812525
0.0929240608793
0.0926298769859
0.0925713438238
0.0925439074038
0.0922184823807
0.0921439094755
0.0916616556797
0.0916210640126
0.0911036648471
0.0911011230069
0.0906140237033
0.0906621403599
0.0902424087197
0.0903567308752
0.0900364052792
0.0902214603555
0.0926335613417
0.0925760305668
0.0925510791684
0.092229754716
0.0921571312703
0.0916780876674
0.0916385638977
0.0911248509912
0.091123413722
0.0906424966988
0.0906926848577
0.0902842670065
0.0904014935042
0.0900987340188
0.0902845167207
0.0927927153106
0.0927335539227
0.0927036601694
0.0923764171822
0.0922997278045
0.0918191801575
0.091775371358
0.0912619247323
0.0912543234258
0.090774223476
0.090814694825
0.0904052394362
0.0905088012275
0.0902028040686
0.0903751823946
0.0928053624842
0.0927494360826
0.0927266759307
0.0924147288016
0.0923432521964
0.0918792243546
0.0918356240979
0.0913454956775
0.0913319002554
0.0908871928954
0.0909135401702
0.0905540033129
0.0906322923567
0.0903850827684
0.0905181660318
0.0930997162695
0.0930403883534
0.0930085661207
0.0926830855389
0.0926048428289
0.0921339128939
0.0920848443109
0.0915882497854
0.0915695896103
0.0911156048177
0.0911378810015
0.0907646763382
0.0908398093867
0.0905771309126
0.0907109439288
0.0931160192404
0.0930616074634
0.0930410531695
0.0927384092182
0.0926687123569
0.0922202041468
0.0921732974328
0.0917058888104
0.091681507032
0.0912677722309
0.0912745426912
0.0909541359842
0.0910007887123
0.0907961505121
0.0908864927235
0.0935235755014
0.0934643437749
0.0934320743417
0.0931105490864
0.0930332268299
0.0925749485457
0.0925227815406
0.0920467165559
0.0920191201899
0.0915942852153
0.091598810621
0.0912649249951
0.091311459159
0.0910936190076
0.0911868659752
0.0935386675234
0.0934852377099
0.0934674271887
0.0931717326549
0.0931057937137
0.092669909705
0.0926228663729
0.0921722033719
0.0921427566024
0.0917502396928
0.0917441997402
0.0914497602868
0.0914749426285
0.0912989338437
0.0913593945081
0.0940160952383
0.0939567340058
0.0939268943314
0.0936096896465
0.0935374850767
0.0930900415942
0.093040752643
0.0925807474204
0.0925513287621
0.0921493149283
0.092143790636
0.0918393399679
0.0918651137221
0.0916810018724
0.0917424012703
0.094029960879
0.093976389184
0.0939639305895
0.0936706520701
0.0936131440533
0.0931828901174
0.0931426398083
0.0926986414082
0.0926725955752
0.0922897527281
0.0922811934916
0.0919999937473
0.0920146545093
0.0918552933607
0.0918967627458
0.0945023552025
0.0944405985993
0.0944191007984
0.0941013627401
0.0940431576
0.0935973413435
0.0935623384935
0.0931070985877
0.0930874204776
0.0926945978923
0.0926911433337
0.0924012908472
0.092419008097
0.0922541576913
0.0922963140601
0.0945217302053
0.094465044298
0.0944677689991
0.0941653894698
0.0941270666939
0.0936875158354
0.0936664770643
0.0932154050169
0.0932052212602
0.0928182957365
0.0928195245711
0.0925382818338
0.0925542645107
0.0924001312657
0.0924332020066
0.0948806986706
0.0948067085094
0.0948001208165
0.0944643914059
0.0944381881488
0.0939746558382
0.0939715389841
0.0935000631068
0.093507352241
0.093103010968
0.0931177579406
0.0928240955455
0.0928478548395
0.0926878202256
0.0927222051426
0.0949120692461
0.0948337831611
0.0948157302434
0.0944704102729
0.0944682488084
0.0939972724627
0.0940112916065
0.0935308288932
0.0935519303207
0.0931399142102
0.0931646712604
0.092866416921
0.0928952557732
0.0927343884351
0.092768296412
0.0950453463063
0.0949106291012
0.0948891287143
0.0945260681165
0.0945289197691
0.0940493450805
0.0940686763612
0.093581824019
0.0936080032961
0.0931906396299
0.0932195370069
0.0929172719839
0.0929488586499
0.0927856812963
0.0928207231099
0.0881686182382
0.088161733862
0.088175382835
0.0880886991952
0.0880472958117
0.0878712516353
0.0878132282088
0.0876112658029
0.0875351223935
0.0873650254449
0.0872775661647
0.0871859108778
0.0870973794686
0.0871108037925
0.0870408264641
0.088174497167
0.0881681200264
0.0881830971578
0.0880988923915
0.0880591343304
0.0878854254926
0.087829292639
0.0876288829466
0.0875562095287
0.0873828479782
0.0873045205616
0.0871965189851
0.0871294725264
0.0871035908099
0.0870721252504
0.0882670422631
0.0882597160346
0.0882727771275
0.0881846588116
0.0881450159914
0.0879684009955
0.0879150925586
0.0877127254489
0.0876452895983
0.0874722652524
0.0873976453452
0.0873001119318
0.0872269057292
0.0872300312632
0.0871705791796
0.088279414279
0.0882734458455
0.0882901730095
0.0882088553922
0.088173560793
0.0880025467397
0.08795377533
0.0877532889724
0.0876934738656
0.0875128501846
0.0874528132689
0.0873277268255
0.0872838108995
0.0872324155855
0.0872234574809
0.088444325156
0.0884365902238
0.0884496119443
0.0883608071514
0.0883253235059
0.088148681212
0.0881046284615
0.0879003007299
0.0878489769481
0.087668680142
0.0876155279696
0.0875001991949
0.0874549670606
0.0874264064395
0.0873974179319
0.0884595016637
0.0884537289959
0.0884721797266
0.0883931872444
0.088363747299
0.0881954439133
0.0881566109274
0.0879577043658
0.0879121572775
0.0877306073603
0.0876872654172
0.0875564741012
0.0875291479277
0.0874686389439
0.0874704625948
0.0886763135973
0.088668077365
0.0886813923456
0.0885919640035
0.0885615307329
0.0883851730016
0.0883510809961
0.0881467687715
0.08810996914
0.0879257844932
0.087891801694
0.0877631841693
0.0877399966121
0.0876876007602
0.0876823076134
0.0886906720809
0.088684588255
0.0887043480378
0.0886255463057
0.0886021861109
0.0884343420412
0.0884060197479
0.0882083030084
0.0881766026281
0.0879948479384
0.087966804832
0.087833662335
0.0878196364543
0.0877550149164
0.0877626543338
0.0889277523328
0.0889183967611
0.0889321927842
0.0888400443581
0.0888152147236
0.0886370978246
0.0886129629065
0.0884079899112
0.0883843376559
0.0881972526313
0.0881785331883
0.088042237257
0.0880350342662
0.0879691110912
0.0879783394588
0.0889402145941
0.0889327034171
0.0889532491573
0.0888698816931
0.088852595831
0.0886803559793
0.088662519202
0.0884621605502
0.0884437190011
0.0882596648289
0.0882450716485
0.0881091721949
0.0881052951673
0.0880369274268
0.0880490969198
0.0891556473755
0.0891432253867
0.0891572522392
0.0890568309474
0.0890385467813
0.0888539315725
0.088840744714
0.0886302502142
0.088619512023
0.0884275796753
0.0884214798667
0.0882799181345
0.0882827124807
0.08821068833
0.0882256247544
0.0891689120925
0.0891577662355
0.089179965277
0.0890828665052
0.0890727038456
0.0888879614184
0.0888819279548
0.0886709127346
0.0886663191673
0.0884736318348
0.0884722194213
0.0883297071244
0.0883351927589
0.0882621828896
0.0882776995325
0.0893175240983
0.089296145736
0.0893054936928
0.0891821934354
0.0891748336046
0.0889733735085
0.0889749702945
0.0887511834553
0.0887560495663
0.0885534699608
0.0885609791648
0.0884113551893
0.0884231650237
0.0883461104848
0.08836389451
0.0893345535307
0.0893085132141
0.089301861486
0.0891650279368
0.0891654154198
0.0889574686264
0.0889655193276
0.0887359942787
0.0887469030855
0.0885393266596
0.0885518011403
0.0883983435986
0.088413386125
0.088334102521
0.0883530088573
0.089386916224
0.0893346381343
0.089323932168
0.089176661364
0.0891784259835
0.0889655214198
0.0889754033063
0.0887425793638
0.0887556382728
0.0885455599516
0.088560044485
0.0884047523338
0.0884212494397
0.0883408837227
0.0883603937205
0.0874675371915
0.0874404704994
0.0874283550759
0.0872342189865
0.0871925070181
0.0868479475813
0.0868592964783
0.0863882246888
0.0864933947778
0.0859006332909
0.0861501046696
0.085434576855
0.0858702058597
0.0850789286378
0.0856802556844
0.087476657655
0.087450299927
0.0874391851535
0.0872492500951
0.0872067485075
0.0868699616194
0.0868769146246
0.0864233198922
0.086518277158
0.0859690663789
0.08619743881
0.0855847444412
0.0859803928101
0.0853896890334
0.0859391096158
0.0875771311872
0.0875500812728
0.0875356277505
0.0873421330229
0.0872972439317
0.0869574728586
0.0869623470732
0.0865003790902
0.0865914988735
0.0860153015553
0.0862383560875
0.0855589237243
0.0859487571762
0.0852354665764
0.085791576325
0.0876151657092
0.0875913771421
0.0875802600442
0.087409065551
0.0873616738486
0.0870660891789
0.0870526028628
0.0866776296915
0.0867201306478
0.0863066878234
0.0864308290237
0.0860238686983
0.0862455509001
0.0858966151171
0.0862127745629
0.087783086024
0.0877572406725
0.0877400694979
0.0875567379622
0.0875057131647