/*--------------------------------*- C++ -*----------------------------------*\
| =========                 |                                                 |
| \\      /  F ield         | OpenFOAM: The Open Source CFD Toolbox           |
|  \\    /   O peration     | Version:  2406                                  |
|   \\  /    A nd           | Website:  www.openfoam.com                      |
|    \\/     M anipulation  |                                                 |
\*---------------------------------------------------------------------------*/
FoamFile
{
    version     2.0;
    format      ascii;
    arch        "LSB;label=32;scalar=64";
    class       surfaceScalarField;
    location    "0.01";
    object      phi;
}
// * * * * * * * * * * * * * * * * * * * * * * * * * * * * * * * * * * * * * //

dimensions      [0 3 -1 0 0 0 0];

oriented        oriented;

internalField   nonuniform List<scalar> 
86338
(
1.3122930106e-06
-4.3163652541e-08
0.000887608804921
1.23524109919e-06
-3.10446325321e-08
0.000889012976082
8.76671333008e-07
-3.08919220298e-08
0.000889267669309
7.02077403362e-07
-3.09807940379e-08
0.000889083774336
5.2568768132e-07
-3.08772948719e-08
0.000889112129932
4.26157947335e-07
-3.1088585301e-08
0.000889008801799
3.32251630685e-07
-3.10062897813e-08
0.000889003090871
2.7007330776e-07
-3.11484281777e-08
0.000888998159438
2.12439730319e-07
-3.11576307381e-08
0.000888966948839
1.68528370486e-07
-3.12769418205e-08
0.00088895333253
1.2755641567e-07
-3.12981754737e-08
0.000888977073449
9.26229233478e-08
-3.1377539426e-08
0.000888944435214
5.93260452137e-08
-3.13908890676e-08
0.000888950806738
2.83365781478e-08
-3.14362605206e-08
0.000888951201702
-3.1429571646e-08
0.00088894794032
1.31140144535e-06
-8.36171758619e-08
0.00088761083021
1.23443063455e-06
-6.13584914575e-08
0.000889015729892
8.7606757309e-07
-6.15112797698e-08
0.000889270760824
7.01655521835e-07
-6.17204300442e-08
0.000889086930029
5.25384019869e-07
-6.14468817705e-08
0.00088911528613
4.25943437871e-07
-6.18289973335e-08
0.000889011959303
3.3209353969e-07
-6.16194879011e-08
0.000889006241391
2.69956990575e-07
-6.18757591089e-08
0.000889001308879
2.12349315124e-07
-6.18619882456e-08
0.000888970090288
1.68457480877e-07
-6.20772533357e-08
0.000888956470373
1.2750118756e-07
-6.21024590307e-08
0.000888980205493
9.25798374526e-08
-6.2241033948e-08
0.000888947563011
5.92957272575e-08
-6.22594042108e-08
0.000888953930782
2.83179106189e-08
-6.23356589117e-08
0.000888954322023
-6.23198246633e-08
0.000888951059265
1.31347297184e-06
-1.31674131326e-07
0.000887613695519
1.23630617714e-06
-9.45828848676e-08
0.000889016169724
8.77296001099e-07
-9.39351223332e-08
0.000889270545813
7.02413934633e-07
-9.43151297064e-08
0.000889086588491
5.25766878762e-07
-9.39297546241e-08
0.000889114908271
4.26109197259e-07
-9.4644708341e-08
0.000889011585079
3.32111279591e-07
-9.43803129711e-08
0.000889005870415
2.69908915529e-07
-9.48446260522e-08
0.00088900094953
2.1226442137e-07
-9.48372008342e-08
0.000888969731347
1.68367254741e-07
-9.51855055482e-08
0.000888956117034
1.27421115772e-07
-9.52321452021e-08
0.000888979854052
9.25176924924e-08
-9.54388016507e-08
0.000888947212749
5.92579645915e-08
-9.54728429112e-08
0.00088895358469
2.83061874346e-08
-9.55798919556e-08
0.000888953974176
-9.55605207953e-08
0.00088895071759
1.31078552588e-06
-1.74553633809e-07
0.000887603205614
1.2339682777e-06
-1.28352795278e-07
0.00088900836555
8.75612947548e-07
-1.28391145651e-07
0.000889263923238
7.01303142273e-07
-1.29091724594e-07
0.000889080198211
5.25003232021e-07
-1.28352511405e-07
0.000889108500853
4.25596422646e-07
-1.2931125726e-07
0.000889005185131
3.3173835252e-07
-1.28849917437e-07
0.000888999439436
2.69646753374e-07
-1.2948805903e-07
0.000888994513183
2.12066299573e-07
-1.29412282269e-07
0.000888963267272
1.68215788263e-07
-1.29865809527e-07
0.000888949642531
1.27309122493e-07
-1.29911012559e-07
0.000888973363623
9.24345607284e-08
-1.30163488967e-07
0.000888940710911
5.9206366683e-08
-1.30210639699e-07
0.000888947077547
2.82827519282e-08
-1.30334471559e-07
0.000888947456368
-1.30314778073e-07
0.000888944203334
1.31489890567e-06
-2.35783765164e-07
0.000887644109274
1.23752552317e-06
-1.694832226e-07
0.000889042949412
8.77673205758e-07
-1.67559334828e-07
0.000889296798799
7.02431431377e-07
-1.68873151341e-07
0.000889112801418
5.25400445793e-07
-1.67907776669e-07
0.000889141031644
4.25647115424e-07
-1.6955567995e-07
0.000889037775934
3.31548439287e-07
-1.69014288783e-07
0.000889032041219
2.69393094268e-07
-1.70050540445e-07
0.000889027163192
2.11795062268e-07
-1.6995476999e-07
0.000888995918675
1.67967599658e-07
-1.70579164056e-07
0.000888982318955
1.27111610148e-07
-1.70653128936e-07
0.00088900604342
9.2284188626e-08
-1.70957670339e-07
0.00088897339969
5.91167482878e-08
-1.71036119346e-07
0.000888979771142
2.82469899961e-08
-1.71171160502e-07
0.000888980151368
-1.71159162589e-07
0.000888976904808
1.31066823583e-06
-2.86165268094e-07
0.000887610824922
1.2342809962e-06
-2.11625947875e-07
0.000889016308377
8.75517994197e-07
-2.10475887921e-07
0.000889272791456
7.01245405352e-07
-2.12811230935e-07
0.000889089322495
5.24669651617e-07
-2.10985595321e-07
0.000889117431776
4.2524619202e-07
-2.13224127295e-07
0.000889014203699
3.31264043401e-07
-2.12259882274e-07
0.000889008339529
2.69197416368e-07
-2.13661211578e-07
0.000889003455481
2.11646194823e-07
-2.13426200249e-07
0.000888972134427
1.67837220038e-07
-2.14180915429e-07
0.000888958522486
1.27017687722e-07
-2.14265294993e-07
0.000888982209836
9.22051972045e-08
-2.14586262829e-07
0.000888949552796
5.90731253837e-08
-2.14705107913e-07
0.000888955912671
2.82293268545e-08
-2.14829051632e-07
0.000888956279921
-2.1483350295e-07
0.000888953037846
1.31555471622e-06
-3.73358880578e-07
0.000887642750556
1.23812375972e-06
-2.70181005395e-07
0.000889033764438
8.76668722096e-07
-2.64241921401e-07
0.000889286332984
7.01313278869e-07
-2.68862884864e-07
0.000889102518935
5.23863712926e-07
-2.6628021307e-07
0.0008891305224
4.24299821714e-07
-2.70134443852e-07
0.000889027586013
3.30267230714e-07
-2.68849647676e-07
0.000889021734157
2.68324627246e-07
-2.70951111737e-07
0.000889017010701
2.10944769825e-07
-2.70629844794e-07
0.000888985695293
1.67272540292e-07
-2.71552356837e-07
0.000888972155448
1.26622374561e-07
-2.71683359033e-07
0.000888995846388
9.19162962951e-08
-2.7198306156e-07
0.000888963214613
5.89100876819e-08
-2.72166365211e-07
0.000888969579102
2.81570438159e-08
-2.72250041484e-07
0.000888969952294
-2.72281264137e-07
0.000888966716583
1.31200199109e-06
-4.40263739657e-07
0.000887652680936
1.23693045042e-06
-3.30211798929e-07
0.000889059547972
8.76308236756e-07
-3.23410477729e-07
0.000889317569095
7.01914947358e-07
-3.31546313964e-07
0.00088913485497
5.24475186011e-07
-3.26722568432e-07
0.000889162327545
4.24927456994e-07
-3.32230324504e-07
0.000889059421827
3.30722760538e-07
-3.30028256302e-07
0.000889053161517
2.68598905043e-07
-3.32822423062e-07
0.000889048440575
2.11133653509e-07
-3.32318887096e-07
0.000889016932496
1.67330433488e-07
-3.33355859873e-07
0.000889003384912
1.26666944831e-07
-3.33576136162e-07
0.000889027001638
9.1907032802e-08
-3.33802388049e-07
0.000888994357391
5.89182073142e-08
-3.34099212693e-07
0.000889000699969
2.81603712632e-08
-3.34108749988e-07
0.00088900106155
-3.34187038917e-07
0.000888997827803
1.30999871958e-06
-5.76399431609e-07
0.000887697248646
1.23591115539e-06
-4.30346484425e-07
0.000889072000699
8.71481089874e-07
-4.088614433e-07
0.000889320992968
6.97206389792e-07
-4.24538095437e-07
0.000889138378345
5.19851921257e-07
-4.17207006865e-07
0.000889165617147
4.21254769097e-07
-4.26216982678e-07
0.000889063695637
3.27966008e-07
-4.23085883103e-07
0.000889057458207
2.66542888684e-07
-4.26789575596e-07
0.000889053168486
2.09780666849e-07
-4.26118987556e-07
0.000889021674129
1.66347681371e-07
-4.27098311395e-07
0.000889008287231
1.26080906033e-07
-4.27442238219e-07
0.000889031911056
9.14958977887e-08
-4.2742090937e-07
0.000888999315293
5.87092707982e-08
-4.27865683355e-07
0.000889005664768
2.8061251256e-08
-4.27720504403e-07
0.000889006038078
-4.27863535297e-07
0.000889002811473
1.31897565517e-06
-6.80916532974e-07
0.000887656653132
1.24753094289e-06
-5.2936902573e-07
0.000889068245717
8.79224710197e-07
-4.97297017276e-07
0.000889327853753
7.0400293162e-07
-5.25659443959e-07
0.000889147455001
5.24414281569e-07
-5.12688054426e-07
0.000889172847947
4.24356290334e-07
-5.25986087569e-07
0.000889070938933
3.301352055e-07
-5.21396848202e-07
0.000889063643875
2.67795979947e-07
-5.26041378794e-07
0.000889059369246
2.10713741123e-07
-5.25392638806e-07
0.000889027467698
1.66863300599e-07
-5.26219712196e-07
0.000889014083637
1.26519964432e-07
-5.26901738147e-07
0.000889037581019
9.174737664e-08
-5.26522815936e-07
0.000889004986265
5.89129710104e-08
-5.27229478157e-07
0.000889011309882
2.81506497061e-08
-5.26857852642e-07
0.000889011677988
-5.27102313338e-07
0.000889008452232
1.26636217628e-06
-8.93788072643e-07
0.000887844287449
1.21929998356e-06
-7.46703803601e-07
0.000889188842637
8.51720892701e-07
-6.56976638007e-07
0.000889425037067
6.85010614205e-07
-7.08261347314e-07
0.000889247090462
5.11133597745e-07
-6.86292719637e-07
0.00088927192714
4.15372158062e-07
-7.05291952218e-07
0.000889172845548
3.24659044176e-07
-6.98475045931e-07
0.000889165569545
2.63980938553e-07
-7.03196240244e-07
0.000889162278389
2.08518000934e-07
-7.02566916619e-07
0.000889130415427
1.65263774942e-07
-7.02509478371e-07
0.000889117322191
1.25610312102e-07
-7.03658959444e-07
0.000889140856072
9.10833259379e-08
-7.02538519787e-07
0.000889108320866
5.85779995332e-08
-7.03606451006e-07
0.000889114660629
2.79834418426e-08
-7.02850482927e-07
0.000889115032235
-7.03227705018e-07
0.000889111813805
1.3548755495e-06
-1.10229645303e-06
0.000887724744524
1.28850485028e-06
-9.29650940104e-07
0.000889147096307
8.85212627323e-07
-7.84595923137e-07
0.000889402023471
7.06970605934e-07
-8.86198752647e-07
0.000889227291328
5.24092722343e-07
-8.52700985449e-07
0.000889247064426
4.22688526967e-07
-8.80199502636e-07
0.000889147423611
3.29462033058e-07
-8.72436128363e-07
0.000889138299429
2.66542009032e-07
-8.77269916814e-07
0.000889134771941
2.10323372153e-07
-8.77615222503e-07
0.000889102378771
1.66212556082e-07
-8.7646146203e-07
0.000889089174616
1.26336379219e-07
-8.78593978426e-07
0.000889112589401
9.14620342894e-08
-8.76528801236e-07
0.000889079976423
5.88499518896e-08
-8.78184793526e-07
0.000889086302135
2.80928030816e-08
-8.76947748166e-07
0.000889086632761
-8.77523484996e-07
0.000889083419138
1.02367553643e-06
-1.33831686616e-06
0.000888083456561
1.13669602204e-06
-1.53005197548e-06
0.000889385159018
7.83618205547e-07
-1.13739175923e-06
0.000889576985651
6.55699621548e-07
-1.28920069407e-06
0.000889402032475
4.95746558115e-07
-1.21998948141e-06
0.000889425019896
4.07032772649e-07
-1.24820555601e-06
0.000889327831763
3.21355162355e-07
-1.23657271187e-06
0.000889320926108
2.61951513406e-07
-1.23758681639e-06
0.000889317498851
2.08018868576e-07
-1.23877776808e-06
0.00088928620708
1.64930601436e-07
-1.23492031743e-06
0.000889272659
1.2566761271e-07
-1.23815696504e-06
0.000889296604242
9.11134284622e-08
-1.23458337224e-06
0.000889263720612
5.86705006993e-08
-1.23691055079e-06
0.000889270280454
2.80312022989e-08
-1.23501630948e-06
0.00088927048626
-1.23581528132e-06
0.000889267337536
1.64488506216e-06
-1.94347436128e-06
0.000887858050504
1.52941703617e-06
-1.64524382364e-06
0.000889155105517
9.28714307121e-07
-1.02407616515e-06
0.0008893851655
7.45447506961e-07
-1.35526812224e-06
0.000889147112588
5.27829932501e-07
-1.26675015426e-06
0.000889188823797
4.28521738473e-07
-1.31935033604e-06
0.000889068231321
3.28163724915e-07
-1.31036863745e-06
0.000889071932271
2.67897122987e-07
-1.31235863491e-06
0.000889059483943
2.09177728741e-07
-1.31591026505e-06
0.000889033630201
1.66862078233e-07
-1.31100656378e-06
0.000889016180195
1.25641908395e-07
-1.31523399326e-06
0.000889042742685
9.17734615874e-08
-1.31110132638e-06
0.000889008164678
5.85355873878e-08
-1.31378400511e-06
0.000889015889755
2.82018988708e-08
-1.31169207845e-06
0.000889015454602
-1.31257912513e-06
0.0008890126291
1.94306620509e-06
0.000884984571076
1.33752307058e-06
0.000887858077463
1.10108900678e-06
0.000888083469615
8.92162104689e-07
0.0008877247705
6.78924795787e-07
0.000887844265265
5.74037527817e-07
0.000887656648643
4.37605776419e-07
0.000887697174812
3.70397138857e-07
0.000887652628095
2.82990253256e-07
0.000887642608302
2.32386416719e-07
0.000887610708948
1.71038075646e-07
0.000887643892414
1.2803159293e-07
0.000887603016813
7.99550428448e-08
0.000887613404107
3.94755912207e-08
0.000887610565565
0.00088760844545
7.20477337067e-07
-4.09195099139e-08
0.000886927996839
6.93694454696e-07
-3.97662100015e-08
0.000889078298626
6.69260750043e-07
-3.93003013745e-08
0.00088933018231
5.84318543874e-07
-3.92842307805e-08
0.000889206774695
5.06137471191e-07
-3.93636349499e-08
0.000889228436864
4.31703967453e-07
-3.94465868557e-08
0.000889121433889
3.65163117584e-07
-3.95469130662e-08
0.000889107915855
3.06398321809e-07
-3.97242784544e-08
0.000889095368527
2.52281020651e-07
-3.97666434101e-08
0.000889059540617
2.03910418259e-07
-3.99014897883e-08
0.000889040294158
1.58203370241e-07
-3.99476493574e-08
0.000889061406914
1.15940566518e-07
-4.00371433458e-08
0.000889025396716
7.51166324358e-08
-4.00663100075e-08
0.000889030350808
3.58584461537e-08
-4.01165766055e-08
0.000889029216469
-4.01156291447e-08
0.000889025431023
7.19692128425e-07
-7.95854689377e-08
0.000886929804582
6.92852331727e-07
-7.83824072854e-08
0.000889081186714
6.68595225191e-07
-7.79136254357e-08
0.000889333631995
5.83829640609e-07
-7.79129171062e-08
0.000889210324966
5.05775359873e-07
-7.80192083567e-08
0.000889231996628
4.31439705603e-07
-7.81520549569e-08
0.000889125001053
3.64959643735e-07
-7.82975705836e-08
0.000889111472722
3.06241232927e-07
-7.86218679365e-08
0.000889098925471
2.52156614471e-07
-7.86748668557e-08
0.000889063083694
2.03811082512e-07
-7.89148919807e-08
0.000889043829837
1.58125783063e-07
-7.89880695004e-08
0.000889064931707
1.1588042774e-07
-7.91416397173e-08
0.000889028913323
7.50750749404e-08
-7.91889409749e-08
0.000889033859198
3.5833542096e-08
-7.9271305468e-08
0.000889032718694
-7.92645775556e-08
0.000889028928689
7.21638684765e-07
-1.22325876371e-07
0.000886934797822
6.94619117199e-07
-1.18998607657e-07
0.000889083806347
6.69807873044e-07
-1.17657815284e-07
0.00088933510201
5.84611163064e-07
-1.17701518107e-07
0.000889211574485
5.06191633309e-07
-1.17887356813e-07
0.000889233196607
4.31636047132e-07
-1.18212168473e-07
0.000889126201421
3.64994567828e-07
-1.18441899911e-07
0.000889112656853
3.06192174079e-07
-1.18990813821e-07
0.000889100121483
2.52063739202e-07
-1.19086835523e-07
0.00088906427234
2.03706997642e-07
-1.19460746378e-07
0.00088904502019
1.58031855113e-07
-1.19580177844e-07
0.000889066121828
1.1580605191e-07
-1.19803136358e-07
0.000889030100541
7.50299502105e-08
-1.19880132062e-07
0.000889035052446
3.58199953663e-08
-1.19992667366e-07
0.000889033905933
-1.1998664918e-07
0.000889030128196
7.19291590439e-07
-1.62081216018e-07
0.000886923669962
6.92184165213e-07
-1.59947980803e-07
0.000889076423217
6.679153808e-07
-1.59107497011e-07
0.000889329642475
5.83265182671e-07
-1.59318380722e-07
0.000889206465961
5.05208776431e-07
-1.59434188347e-07
0.000889228104755
4.30936665678e-07
-1.59919388937e-07
0.00088912116511
3.64476000583e-07
-1.60089923065e-07
0.000889107548765
3.05804787357e-07
-1.60819708048e-07
0.00088909501392
2.51768830098e-07
-1.60906857011e-07
0.000889059123861
2.03479427068e-07
-1.61381176509e-07
0.000889039852948
1.57864243106e-07
-1.61530200849e-07
0.000889060929382
1.15683418296e-07
-1.61797779322e-07
0.000889024886899
7.49551782475e-08
-1.61902459835e-07
0.000889029828605
3.57864130371e-08
-1.62031294485e-07
0.000889028664228
-1.62027873311e-07
0.000889024890621
7.23245391841e-07
-2.10032933092e-07
0.000886968816207
6.95533972644e-07
-2.05027262164e-07
0.000889115740993
6.70022892416e-07
-2.02957236509e-07
0.000889366160398
5.84520164501e-07
-2.03527203488e-07
0.000889242513667
5.05728973085e-07
-2.03679099497e-07
0.00088926406842
4.3105641289e-07
-2.04704536547e-07
0.000889157234305
3.64346731757e-07
-2.04885336048e-07
0.000889143546972
3.05570006764e-07
-2.0594763672e-07
0.000889131068496
2.51498256008e-07
-2.06087928759e-07
0.000889095172133
2.03216430318e-07
-2.06706671176e-07
0.000889075926887
1.57647784544e-07
-2.06922193062e-07
0.00088909700464
1.15515237772e-07
-2.0723386808e-07
0.000889060968877
7.48546087892e-08
-2.07387297162e-07
0.000889065917131
3.5748742935e-08
-2.07524052043e-07
0.000889064750492
-2.07532691257e-07
0.000889060989609
7.19490428678e-07
-2.53306811126e-07
0.000886934608988
6.9192199904e-07
-2.51027222962e-07
0.00088908987766
6.67298867177e-07
-2.49918124058e-07
0.000889344376266
5.82722230301e-07
-2.51119364331e-07
0.000889221492003
5.04444328922e-07
-2.50971607512e-07
0.000889243002873
4.30187763278e-07
-2.52520008841e-07
0.000889136276416
3.63721766243e-07
-2.52481647877e-07
0.000889122402514
3.05113691486e-07
-2.53812345825e-07
0.000889109928936
2.51159585217e-07
-2.53939158907e-07
0.000889073940422
2.02948812906e-07
-2.54647880454e-07
0.000889054675105
1.5745781424e-07
-2.54924413299e-07
0.000889075703666
1.15372216609e-07
-2.5523631805e-07
0.000889039641426
7.47741681801e-08
-2.55448783312e-07
0.000889044572761
3.57164635051e-08
-2.55568278199e-07
0.000889043382388
-2.55596928957e-07
0.000889039629091
7.25120682016e-07
-3.0784889301e-07
0.000886972172581
6.9595033273e-07
-3.03227502125e-07
0.000889115135975
6.69106494637e-07
-3.00601200077e-07
0.000889363860704
5.83386657026e-07
-3.03173920881e-07
0.000889240294055
5.0414918857e-07
-3.02927554944e-07
0.000889261716519
4.29547199823e-07
-3.05665807814e-07
0.000889155334496
3.62931965773e-07
-3.05539494541e-07
0.000889141407931
3.04352390316e-07
-3.07338538927e-07
0.000889129117159
2.50501226022e-07
-3.0753322284e-07
0.0008890931412
2.02388106086e-07
-3.08338906643e-07
0.000889073960254
1.57043779548e-07
-3.08729535683e-07
0.000889094996472
1.15061964246e-07
-3.09000095664e-07
0.000889058960815
7.45953002024e-08
-3.09302848323e-07
0.000889063900417
3.56408097973e-08
-3.09374099333e-07
0.000889062713176
-3.09435123683e-07
0.000889058972328
7.20826333793e-07
-3.57739999236e-07
0.000886981746346
6.92534104231e-07
-3.57707912298e-07
0.000889142321538
6.66630085282e-07
-3.56119068763e-07
0.000889398991805
5.82122888975e-07
-3.60735046699e-07
0.000889276924033
5.03296264584e-07
-3.59754161177e-07
0.000889297981494
4.29095192633e-07
-3.6374602144e-07
0.000889191703821
3.62627205361e-07
-3.63299519066e-07
0.000889177390233
3.04114317026e-07
-3.65515749553e-07
0.000889165131373
2.50334930378e-07
-3.65774261578e-07
0.000889128953609
2.02218202612e-07
-3.66598193801e-07
0.000889109761598
1.56936651041e-07
-3.67156200453e-07
0.000889130710503
1.14961196694e-07
-3.67312015393e-07
0.000889094645392
7.45507008909e-08
-3.6774754736e-07
0.000889099555773
3.56242507244e-08
-3.67727556249e-07
0.000889098342057
-3.67839514527e-07
0.000889094606261
7.26164433308e-07
-4.16017016331e-07
0.000887029361879
6.93983232423e-07
-4.19021173395e-07
0.000889165496103
6.64408942045e-07
-4.1629397114e-07
0.000889410742999
5.79561668073e-07
-4.25267830637e-07
0.000889287759161
5.00297058224e-07
-4.23590691012e-07
0.000889308719018
4.26469746737e-07
-4.29709562735e-07
0.000889203487208
3.6044676676e-07
-4.28998648314e-07
0.000889189181026
3.02361110196e-07
-4.31650884557e-07
0.00088917738998
2.49055930384e-07
-4.3205919563e-07
0.000889141264934
2.01214737204e-07
-4.32725316154e-07
0.000889122256222
1.56267621297e-07
-4.33531473742e-07
0.000889143234101
1.14475592111e-07
-4.33430416533e-07
0.000889107226361
7.42869013494e-08
-4.3405366265e-07
0.000889112160199
3.55050259085e-08
-4.338665351e-07
0.000889110959552
-4.34047985309e-07
0.000889107240421
7.24321606081e-07
-4.76235839156e-07
0.000886992551009
6.95032466706e-07
-4.85989878018e-07
0.000889164504516
6.64927078396e-07
-4.82141542092e-07
0.000889423807561
5.80615689743e-07
-4.97662925452e-07
0.000889304162251
5.01060194578e-07
-4.94860782772e-07
0.000889323674276
4.27158922221e-07
-5.03226993818e-07
0.000889218358359
3.60870749577e-07
-5.02444702686e-07
0.000889203378817
3.02468671787e-07
-5.05458542667e-07
0.000889191579686
2.4907989888e-07
-5.06272390395e-07
0.000889155070357
2.01029311206e-07
-5.06582549782e-07
0.000889135992134
1.56101472111e-07
-5.07812863944e-07
0.000889156790907
1.14263128577e-07
-5.07301766871e-07
0.000889120696601
7.41685158785e-08
-5.08219032534e-07
0.000889125570499
3.54445334743e-08
-5.07803666968e-07
0.000889124339736
-5.08095769556e-07
0.000889120626092
7.20687458237e-07
-5.18759077934e-07
0.000887166123896
6.85462467248e-07
-5.55571085166e-07
0.000889293649796
6.51067910879e-07
-5.49483491423e-07
0.000889526774431
5.69953119277e-07
-5.76225107593e-07
0.000889406768216
4.9270584124e-07
-5.71732294211e-07
0.000889426046682
4.21061125648e-07
-5.82398621866e-07
0.000889323662631
3.56906943344e-07
-5.81330972289e-07
0.000889308610721
2.99764224257e-07
-5.83894204895e-07
0.000889297857482
2.47568039181e-07
-5.85128093254e-07
0.000889261468012
2.00043467541e-07
-5.84468961679e-07
0.000889242733857
1.55655766183e-07
-5.8622552354e-07
0.0008892636571
1.13978851961e-07
-5.84970996018e-07
0.000889227667666
7.40742530783e-08
-5.8626652297e-07
0.000889232613369
3.53981634724e-08
-5.85478518565e-07
0.000889231383825
-5.85913493933e-07
0.000889227689788
7.32632479936e-07
-5.92362610581e-07
0.000887065716249
6.99046106102e-07
-6.32383113545e-07
0.000889257495664
6.5707918089e-07
-6.14815036959e-07
0.000889509322805
5.74443098809e-07
-6.58454708175e-07
0.000889392157804
4.95504723087e-07
-6.5243684564e-07
0.000889406708124
4.22734369939e-07
-6.66288197725e-07
0.000889304084294
3.57887752892e-07
-6.65768283407e-07
0.0008892875841
3.000137249e-07
-6.67973780384e-07
0.000889276726271
2.477205527e-07
-6.70430124916e-07
0.000889239974686
1.99901378834e-07
-6.68617151767e-07
0.000889221142677
1.55554275992e-07
-6.71315379615e-07
0.000889242027044
1.13813979459e-07
-6.69198099957e-07
0.000889205944496
7.39943207547e-08
-6.71058693777e-07
0.00088921091463
3.53520280811e-08
-6.69831145437e-07
0.000889209628341
-6.70462436525e-07
0.000889205953731
6.67039467687e-07
-5.21807530969e-07
0.000887345862683
6.46137814192e-07
-6.91407104758e-07
0.000889465085614
6.13435742037e-07
-6.47115921655e-07
0.000889641989508
5.47702401246e-07
-7.00007631341e-07
0.000889509319592
4.79988152441e-07
-6.86412867127e-07
0.000889526711006
4.13767262807e-07
-6.95962576261e-07
0.000889423727858
3.53279932801e-07
-6.94914955614e-07
0.000889410560923
2.97453344596e-07
-6.93445265298e-07
0.000889398797721
2.46534847579e-07
-6.96853209645e-07
0.000889363549443
1.99348733356e-07
-6.92810487595e-07
0.000889344039217
1.55362285633e-07
-6.96413759361e-07
0.000889365689824
1.13789178835e-07
-6.93045349604e-07
0.000889329141712
7.4013765583e-08
-6.95468206213e-07
0.000889334466112
3.53848879976e-08
-6.93679154255e-07
0.000889332963871
-6.94507558466e-07
0.000889329391234
7.35777175504e-07
-5.52649740926e-07
0.000887153116191
6.90528209197e-07
-7.3622310281e-07
0.000889245171396
6.31064912337e-07
-6.67550418448e-07
0.000889465064167
5.53812077329e-07
-7.33122491301e-07
0.000889257481148
4.83837761123e-07
-7.21173948447e-07
0.000889293560056
4.16478149979e-07
-7.24788256944e-07
0.000889164417465
3.54838778349e-07
-7.26634023854e-07
0.000889165291548
3.00038006184e-07
-7.21280567231e-07
0.00088914212084
2.4760528935e-07
-7.25577647493e-07
0.000889114788163
2.01375331253e-07
-7.19931016334e-07
0.000889089531476
1.56163582336e-07
-7.23688719992e-07
0.000889115230177
1.15088110498e-07
-7.19716333342e-07
0.000889075911902
7.44462655446e-08
-7.22065109724e-07
0.000889083129255
3.58134611861e-08
-7.2009799295e-07
0.000889080506983
-7.20883898004e-07
0.000889077468514
5.52244903166e-07
0.000883879677023
5.20965848511e-07
0.000887153134032
5.91044775668e-07
0.000887345840863
5.1697790314e-07
0.000887065715469
4.74045315157e-07
0.000887166024482
4.13424527209e-07
0.000886992481744
3.54821303945e-07
0.00088702914457
3.04599828887e-07
0.000886981569551
2.4982387319e-07
0.000886971807148
2.06311194122e-07
0.00088693429114
1.58229278815e-07
0.000886968286129
1.1834059052e-07
0.000886923189676
7.55783157318e-08
0.000886934101762
3.68902965357e-08
0.00088692915607
0.000886927149287
6.230830443e-07
-4.21851021249e-08
0.000886345669942
5.65088439131e-07
-4.14490591675e-08
0.000889176312189
5.72406843967e-07
-4.05215879609e-08
0.000889361975549
5.17555817099e-07
-4.04970491923e-08
0.000889300703143
4.71592493643e-07
-4.05104492539e-08
0.000889313481604
4.12559901775e-07
-4.07173566255e-08
0.000889219732402
3.57953502496e-07
-4.0767217883e-08
0.000889201822124
3.04473985487e-07
-4.09781222424e-08
0.000889188330345
2.53930937947e-07
-4.10332437617e-08
0.00088914960447
2.06618019531e-07
-4.12138287784e-08
0.000889127277168
1.61365053866e-07
-4.12645316085e-08
0.000889146366669
1.18547059149e-07
-4.14067854987e-08
0.000889108033324
7.70087494027e-08
-4.14246171595e-08
0.000889111717064
3.6621516099e-08
-4.15243653138e-08
0.000889109506626
-4.14922857274e-08
0.000889105117813
6.22249841718e-07
-8.19860253989e-08
0.000886347356155
5.6417944532e-07
-8.15417917e-08
0.000889179350599
5.71685907698e-07
-8.01182109676e-08
0.000889365722829
5.17012994359e-07
-8.00839521796e-08
0.000889304585399
4.71177397657e-07
-8.0060693679e-08
0.000889317383061
4.12245290373e-07
-8.04293782948e-08
0.000889223645761
3.57701850798e-07
-8.047384637e-08
0.000889205723348
3.04271136874e-07
-8.08460340109e-08
0.000889192224633
2.53761600738e-07
-8.09202840257e-08
0.000889153480776
2.06474132458e-07
-8.12307671216e-08
0.000889131134717
1.61244241676e-07
-8.13093536458e-08
0.000889150206858
1.18447908691e-07
-8.1545391883e-08
0.000889111848671
7.69343876084e-08
-8.15697526712e-08
0.000889115518237
3.65747135525e-08
-8.17301075169e-08
0.000889113284474
-8.1666641397e-08
0.000889108890553
6.23906225375e-07
-1.25825020615e-07
0.000886354731114
5.65919318328e-07
-1.23540429635e-07
0.000889183792669
5.72896980784e-07
-1.20596034245e-07
0.000889368602862
5.17784977705e-07
-1.20563444824e-07
0.000889307166614
4.71580293378e-07
-1.20545835971e-07
0.000889319887041
4.12433180334e-07
-1.21213170319e-07
0.00088922613292
3.57726020937e-07
-1.21292212518e-07
0.000889208182956
3.04214019203e-07
-1.21893803409e-07
0.000889194681812
2.53660105771e-07
-1.22018864613e-07
0.000889155925366
2.06363596716e-07
-1.22483135209e-07
0.000889133569568
1.61144776344e-07
-1.22611730618e-07
0.000889152643494
1.18375441039e-07
-1.22944792421e-07
0.000889114269714
7.6894192333e-08
-1.22991352956e-07
0.000889117955706
3.65747978087e-08
-1.23209839579e-07
0.00088911570545
-1.23125458075e-07
0.000889111341138
6.21397910343e-07
-1.66842425715e-07
0.000886343289992
5.63247050119e-07
-1.65844346743e-07
0.000889176878782
5.70809856741e-07
-1.62585668371e-07
0.000889364070001
5.1625248075e-07
-1.62622641997e-07
0.000889303083173
4.70431236376e-07
-1.62472710565e-07
0.00088931585349
4.11598384112e-07
-1.63354428502e-07
0.000889222139827
3.57075344234e-07
-1.6336697531e-07
0.000889204147158
3.03703364552e-07
-1.64134155809e-07
0.000889190626828
2.53247744291e-07
-1.64263442374e-07
0.000889151824613
2.06028568307e-07
-1.64825307803e-07
0.000889129414822
1.60877892307e-07
-1.64990364363e-07
0.000889148459186
1.18175350185e-07
-1.65371351726e-07
0.000889110016464
7.67600361494e-08
-1.65444654892e-07
0.000889113697659
3.65163565851e-08
-1.65685154434e-07
0.000889111383639
-1.65595424641e-07
0.000889107046786
6.2464121922e-07
-2.15782474921e-07
0.00088639311558
5.66558205804e-07
-2.11860304089e-07
0.000889219840762
5.72970938541e-07
-2.06239706677e-07
0.000889403402413
5.17522813255e-07
-2.06451933542e-07
0.000889341791734
4.7097716398e-07
-2.06272348081e-07
0.000889354414336
4.11789085115e-07
-2.07659524727e-07
0.000889260728099
3.5699498981e-07
-2.07721930161e-07
0.000889242696631
3.03496404385e-07
-2.08788716851e-07
0.00088922922224
2.52993046527e-07
-2.08989316732e-07
0.000889190401943
2.05773142179e-07
-2.09686815479e-07
0.000889168008851
1.60663926275e-07
-2.09928867093e-07
0.000889187052882
1.18012869141e-07
-2.10357051068e-07
0.000889148606128
7.66663467942e-08
-2.10480757122e-07
0.000889152300224
3.64930779517e-08
-2.10737020075e-07
0.000889149976073
-2.10652595359e-07
0.000889145665393
6.20553325868e-07
-2.60448468765e-07
0.000886358722209
5.62396457465e-07
-2.58679031744e-07
0.00088919485407
5.6980421093e-07
-2.52492663513e-07
0.000889383222193
5.15323102873e-07
-2.52987846142e-07
0.000889322509689
4.69386192611e-07
-2.52495452124e-07
0.000889335163532
4.1069286786e-07
-2.54251298873e-07
0.000889241562153
3.56169103324e-07
-2.54217611904e-07
0.00088922342259
3.02857668578e-07
-2.55486001051e-07
0.000889209938276
2.52490373627e-07
-2.55709409281e-07
0.000889171028413
2.05363670698e-07
-2.5645809279e-07
0.000889148573666
1.60348254335e-07
-2.56776405357e-07
0.000889167567173
1.17776925415e-07
-2.57183068124e-07
0.000889129039297
7.65177665971e-08
-2.57374027032e-07
0.00088913272569
3.64372026833e-08
-2.57601670399e-07
0.000889130328084
-2.57543065703e-07
0.000889126054009
6.24725593408e-07
-3.15116979849e-07
0.00088640211606
5.66413405596e-07
-3.10093112602e-07
0.000889224863076
5.71910003556e-07
-3.00521558054e-07
0.000889406393741
5.16191400285e-07
-3.01719160607e-07
0.000889344744655
4.69292060437e-07
-3.01082895536e-07
0.000889357203966
4.10278039377e-07
-3.03733022955e-07
0.000889263830897
3.5555250232e-07
-3.03770261542e-07
0.000889245686766
3.02199747654e-07
-3.05400080848e-07
0.000889232384633
2.51895654244e-07
-3.05743506791e-07
0.000889193480015
2.04838849421e-07
-3.06545748026e-07
0.000889171105317
1.59952899672e-07
-3.07003694915e-07
0.000889190110288
1.17480894159e-07
-3.07351918216e-07
0.000889151602223
7.63492735199e-08
-3.07646992594e-07
0.000889155305534
3.63764315682e-08
-3.07820263985e-07