/*--------------------------------*- C++ -*----------------------------------*\
| =========                 |                                                 |
| \\      /  F ield         | OpenFOAM: The Open Source CFD Toolbox           |
|  \\    /   O peration     | Version:  2406                                  |
|   \\  /    A nd           | Website:  www.openfoam.com                      |
|    \\/     M anipulation  |                                                 |
\*---------------------------------------------------------------------------*/
FoamFile
{
    version     2.0;
    format      ascii;
    arch        "LSB;label=32;scalar=64";
    class       surfaceScalarField;
    location    "0.01";
    object      phiHbyA;
}
// * * * * * * * * * * * * * * * * * * * * * * * * * * * * * * * * * * * * * //

dimensions      [0 3 -1 0 0 0 0];

oriented        oriented;

internalField   nonuniform List<scalar> 
86338
(
1.28280367638e-06
-4.32074292142e-08
0.00088759806225
1.24426880644e-06
-3.10845567046e-08
0.000889011960287
8.62862619473e-07
-3.09250842892e-08
0.000889263700978
7.06619745569e-07
-3.10036573565e-08
0.000889083267932
5.18925090846e-07
-3.0897424549e-08
0.000889110367727
4.2798286672e-07
-3.11037264595e-08
0.000889008307416
3.28672733329e-07
-3.10202450191e-08
0.000889002187557
2.7079916257e-07
-3.11600963476e-08
0.000888997744417
2.10456674533e-07
-3.1169354401e-08
0.00088896640178
1.68803213964e-07
-3.12874066478e-08
0.000888952984247
1.26478201233e-07
-3.130873576e-08
0.000888976683709
9.27223961457e-08
-3.13874096583e-08
0.000888944128901
5.88446865021e-08
-3.14007098714e-08
0.000888950487942
2.83755516e-08
-3.14456993968e-08
0.0008889509148
-3.14388959932e-08
0.000888947649797
1.28191551154e-06
-8.3069404546e-08
0.000887600090356
1.24346481565e-06
-6.08246033911e-08
0.000889014716467
8.62269054087e-07
-6.09952861117e-08
0.000889266794682
7.06200612729e-07
-6.12254381134e-08
0.000889086425483
5.18626281154e-07
-6.095987191e-08
0.00088911352605
4.2776958209e-07
-6.13471366363e-08
0.000889011466711
3.28516918927e-07
-6.11394797643e-08
0.00088900533984
2.70682791738e-07
-6.13960617921e-08
0.000889000895724
2.10367512193e-07
-6.13833458106e-08
0.000888969545229
1.68732230048e-07
-6.15972417846e-08
0.000888956124074
1.26423659596e-07
-6.16228481354e-08
0.000888979817842
9.26793600702e-08
-6.17602273451e-08
0.000888947258735
5.88147490446e-08
-6.17789370851e-08
0.000888953614102
2.83569986899e-08
-6.18544295067e-08
0.000888954037161
-6.18391738385e-08
0.000888950770858
1.28397793607e-06
-1.31828427274e-07
0.000887602924434
1.24532697366e-06
-9.4725532963e-08
0.000889015125221
8.63477646394e-07
-9.40613982839e-08
0.000889266549984
7.0695100085e-07
-9.44113838946e-08
0.000889086054601
5.19003880616e-07
-9.4022181768e-08
0.000889113119511
4.27933464381e-07
-9.47221961095e-08
0.000889011062684
3.28534344355e-07
-9.44582150243e-08
0.000889004938904
2.70633674125e-07
-9.49162375285e-08
0.000889000506387
2.10283993611e-07
-9.49108457791e-08
0.000888969156345
1.68641587886e-07
-9.52556847439e-08
0.000888955740553
1.26344801323e-07
-9.53037985231e-08
0.000888979436282
9.26168709743e-08
-9.55085534466e-08
0.000888946878183
5.87777486572e-08
-9.55434166452e-08
0.000888953237784
2.83446982645e-08
-9.5649350589e-08
0.000888953658999
-9.56305636509e-08
0.000888950398917
1.28130111582e-06
-1.73384173104e-07
0.0008875924457
1.24300420258e-06
-1.27211334405e-07
0.000889007330706
8.61824492312e-07
-1.27278955005e-07
0.000889259937423
7.05843999903e-07
-1.28013279078e-07
0.000889079673073
5.18254915872e-07
-1.27284864522e-07
0.000889106722429
4.27420348905e-07
-1.28244081272e-07
0.000889004671403
3.28167742353e-07
-1.27786875464e-07
0.000888998517573
2.70369469792e-07
-1.28420165903e-07
0.000888994079944
2.10089355511e-07
-1.28345123363e-07
0.000888962702784
1.68488646985e-07
-1.28794053203e-07
0.000888949276478
1.26234717125e-07
-1.28838876692e-07
0.000888972956667
9.25329170131e-08
-1.29088714663e-07
0.000888940386982
5.87272703921e-08
-1.29135582246e-07
0.000888946741532
2.83206779855e-08
-1.29258144621e-07
0.000888947151879
-1.2923884406e-07
0.000888943895557
1.28539563461e-06
-2.36099310227e-07
0.000887633270999
1.24654218927e-06
-1.69779001193e-07
0.000889041836484
8.63853023263e-07
-1.6784749167e-07
0.000889292736272
7.06961564644e-07
-1.69117022913e-07
0.000889112199161
5.18651369793e-07
-1.68163260499e-07
0.000889139176709
4.27466979779e-07
-1.69789554269e-07
0.000889037181914
3.27982539937e-07
-1.69263178354e-07
0.000889031039976
2.70115130671e-07
-1.70289365379e-07
0.000889026649189
2.09822655963e-07
-1.70202962976e-07
0.000888995273586
1.68240813709e-07
-1.70822731031e-07
0.00088898187146
1.26039843228e-07
-1.70901229002e-07
0.000889005555112
9.23828213147e-08
-1.71203625269e-07
0.000888972993995
5.86389037322e-08
-1.71283964233e-07
0.000888979353462
2.82845275274e-08
-1.71417828049e-07
0.000888979765029
-1.71406889832e-07
0.000888976515262
1.28118296723e-06
-2.84186361184e-07
0.000887600015716
1.2433024881e-06
-2.09686322724e-07
0.000889015221883
8.61741924422e-07
-2.08553051739e-07
0.000889268760523
7.05763803954e-07
-2.10902777229e-07
0.000889088750015
5.17942379575e-07
-2.09078912773e-07
0.000889115611712
4.27050985723e-07
-2.11290945217e-07
0.000889013643293
3.27708323971e-07
-2.10327033946e-07
0.000889007375827
2.69910055609e-07
-2.11706155078e-07
0.000889002978575
2.09678474361e-07
-2.11468988424e-07
0.000888971528382
1.68105900237e-07
-2.12211814898e-07
0.000888958113787
1.25948090901e-07
-2.12293243822e-07
0.000888981761256
9.23019391719e-08
-2.12609638988e-07
0.000888949186602
5.85964733926e-08
-2.12726561969e-07
0.000888955534941
2.82658028097e-08
-2.12849044432e-07
0.0008889559333
-2.12853292909e-07
0.000888952688293
1.2860471657e-06
-3.73932067159e-07
0.000887631774455
1.24714515481e-06
-2.70727187721e-07
0.000889032509151
8.62882531534e-07
-2.6485675312e-07
0.00088928212867
7.05829794238e-07
-2.6943871331e-07
0.000889101766403
5.17163015898e-07
-2.66930077778e-07
0.000889128520983
4.26104281938e-07
-2.70764226023e-07
0.000889026835952
3.26733659899e-07
-2.69529716503e-07
0.00088902058095
2.6903948099e-07
-2.71620905605e-07
0.00088901633951
2.08988938072e-07
-2.71324523909e-07
0.000888984895047
1.67544111333e-07
-2.72243244969e-07
0.00088897155025
1.25557410062e-07
-2.72383857096e-07
0.000888995201346
9.20149424401e-08
-2.72682635691e-07
0.0008889626511
5.84348908958e-08
-2.7286855604e-07
0.000888969004214
2.81937286076e-08
-2.72951868861e-07
0.000888969408244
-2.72984136436e-07
0.000888966169714
1.28251570396e-06
-4.37114041633e-07
0.00088764177404
1.2458784484e-06
-3.27080342142e-07
0.000889058359632
8.62559309357e-07
-3.20204598624e-07
0.000889313459618
7.06357598163e-07
-3.28219891119e-07
0.000889134197921
5.17794343451e-07
-3.23377170967e-07
0.000889160439355
4.26681682852e-07
-3.28772173767e-07
0.00088905878579
3.27199378261e-07
-3.26560892721e-07
0.000889052132219
2.69288874151e-07
-3.29296665346e-07
0.000889047893178
2.09181553672e-07
-3.28784273395e-07
0.000889016260638
1.67592423759e-07
-3.29799099149e-07
0.000889002907928
1.25602850823e-07
-3.30010655053e-07
0.000889026486776
9.2003071489e-08
-3.30232142963e-07
0.000888993923944
5.8443361732e-08
-3.30523925429e-07
0.000889000255834
2.81960100913e-08
-3.30533690517e-07
0.000889000648052
-3.30610594038e-07
0.000888997411766
1.28052232664e-06
-5.77390632147e-07
0.000887685987768
1.24496138265e-06
-4.31326127337e-07
0.000889070442995
8.57859148449e-07
-4.10220117983e-07
0.000889316478454
7.01667684221e-07
-4.25925114584e-07
0.000889137277801
5.13284167822e-07
-4.18839357737e-07
0.000889163285727
4.23018155289e-07
-4.27839650501e-07
0.000889062589979
3.24501019786e-07
-4.24834502165e-07
0.000889055959582
2.67241799657e-07
-4.28528029794e-07
0.00088905213967
2.07850773503e-07
-4.27907743904e-07
0.000889020520947
1.66618276053e-07
-4.28886228998e-07
0.000889007324138
1.25021716212e-07
-4.29245430311e-07
0.000889030909873
9.15969434218e-08
-4.29226993306e-07
0.000888998394103
5.82342009334e-08
-4.29672646857e-07
0.000889004733325
2.80982852392e-08
-4.2952838885e-07
0.000889005137192
-4.29671003329e-07
0.000889001908263
1.28950227165e-06
-6.7594709546e-07
0.000887645553007
1.25619112716e-06
-5.24118467361e-07
0.000889066855403
8.65572830203e-07
-4.91711592491e-07
0.000889323625953
7.08218991474e-07
-5.19455924706e-07
0.000889146662321
5.1785647902e-07
-5.06448108775e-07
0.000889170877374
4.25993724287e-07
-5.19425608811e-07
0.000889070202001
3.26680434172e-07
-5.14827020093e-07
0.000889062537889
2.68444536962e-07
-5.19358540098e-07
0.00088905873319
2.08784686253e-07
-5.18690862806e-07
0.000889026717158
1.67118675691e-07
-5.19491426817e-07
0.00088901352314
1.25457812485e-07
-5.20152704231e-07
0.000889036986347
9.18474692008e-08
-5.1977461797e-07
0.00088900447228
5.8437003193e-08
-5.2046750916e-07
0.000889010786691
2.81880572926e-08
-5.20101118512e-07
0.000889011185059
-5.20341332391e-07
0.000889007957064
1.23721337105e-06
-8.95411653128e-07
0.000887832427028
1.22834255384e-06
-7.4863831439e-07
0.000889186561464
8.38698833974e-07
-6.60413473741e-07
0.000889419816934
6.89262901739e-07
-7.11833287172e-07
0.000889245137557
5.04896328586e-07
-6.90535444793e-07
0.000889268804142
4.17018674914e-07
-7.09498154267e-07
0.000889170875261
3.21316947643e-07
-7.02926518624e-07
0.000889163238152
2.64648661712e-07
-7.07628544709e-07
0.000889160390561
2.06615380122e-07
-7.07073076825e-07
0.000889128414064
1.6553970494e-07
-7.07016925196e-07
0.000889115502581
1.24547605411e-07
-7.08178207016e-07
0.000889139001227
9.11974456841e-08
-7.0706787838e-07
0.000889106542979
5.80969068706e-08
-7.08132219799e-07
0.000889112872033
2.80252364512e-08
-7.07383791394e-07
0.000889113272738
-7.07758648404e-07
0.000889110051813
1.32540486157e-06
-1.09440911473e-06
0.000887713230337
1.29602185142e-06
-9.19417840001e-07
0.000889145300145
8.72046936066e-07
-7.73518787532e-07
0.000889397743489
7.10552108718e-07
-8.73031121502e-07
0.00088922634006
5.17892175229e-07
-8.39677065652e-07
0.000889245111366
4.24089675198e-07
-8.66545895657e-07
0.000889146630984
3.26139435232e-07
-8.58812714477e-07
0.000889137198711
2.67135704018e-07
-8.63519626225e-07
0.000889134114932
2.08419576557e-07
-8.63828093036e-07
0.000889101625944
1.6647680621e-07
-8.6268460883e-07
0.000889088602129
1.25263487266e-07
-8.64773480179e-07
0.000889111986744
9.15797780932e-08
-8.6274017949e-07
0.000889079451202
5.83613617654e-08
-8.64366680485e-07
0.000889085767774
2.81369464961e-08
-8.63149594373e-07
0.000889086128072
-8.63715405011e-07
0.00088908291225
9.96620608466e-07
-1.34038223081e-06
0.000888070234632
1.1451479138e-06
-1.53458949188e-06
0.000889380842638
7.72543013909e-07
-1.14583958861e-06
0.000889569953397
6.59145963542e-07
-1.2967138591e-06
0.000889397752775
4.90163978477e-07
-1.2290282191e-06
0.000889419799944
4.08405354552e-07
-1.2568620933e-06
0.000889323604368
3.18153007976e-07
-1.24561913065e-06
0.000889316411819
2.62583826742e-07
-1.24653115453e-06
0.000889313389812
2.06100545229e-07
-1.24779521885e-06
0.000889282002997
1.65238714019e-07
-1.2439379697e-06
0.000889268628588
1.24560838601e-07
-1.2471695093e-06
0.000889292541975
9.12608332592e-08
-1.2436152914e-06
0.000889259735371
5.81607994273e-08
-1.24592710271e-06
0.00088926628492
2.80854234084e-08
-1.24404640021e-06
0.000889266520717
-1.24483873307e-06
0.00088926336954
1.61529791834e-06
-1.93250808975e-06
0.00088784540707
1.53395863367e-06
-1.61565598105e-06
0.000889152270287
9.18482943422e-07
-9.97020295787e-07
0.000889380849032
7.47391600869e-07
-1.32579657725e-06
0.000889145316498
5.22582057793e-07
-1.23760048799e-06
0.000889186542518
4.29515569406e-07
-1.28987620297e-06
0.000889066841106
3.25035875793e-07
-1.28089148103e-06
0.000889070374459
2.68461224503e-07
-1.28287177848e-06
0.000889058295714
2.07242550454e-07
-1.28640221249e-06
0.000889032374728
1.67178269117e-07
-1.28152096334e-06
0.000889015093814
1.24505794568e-07
-1.28573047311e-06
0.000889041629529
9.19376618386e-08
-1.28161684643e-06
0.000889007129926
5.8007891415e-08
-1.28428897135e-06
0.000889014845002
2.82632305818e-08
-1.28220633131e-06
0.00088901444124
-1.28309002757e-06
0.000889011613062
1.93210063457e-06
0.000884968645672
1.33959278953e-06
0.000887845433939
1.09320333474e-06
0.000888070247492
8.93795354421e-07
0.000887713256245
6.7395795336e-07
0.000887832404629
5.75043054006e-07
0.000887645548505
4.34459522434e-07
0.000887685913718
3.7098833324e-07
0.000887641721246
2.81015661005e-07
0.000887631632011
2.32722468827e-07
0.00088759989986
1.69873828596e-07
0.000887633053989
1.28207556613e-07
0.000887592257077
7.94133321216e-08
0.000887602632928
3.95409117778e-08
0.00088759982594
0.000887597702762
7.1732798604e-07
-4.0955535671e-08
0.000886928200992
6.94633881485e-07
-3.97997797851e-08
0.000889078606518
6.64846598932e-07
-3.93275264756e-08
0.000889330371389
5.85446987185e-07
-3.93020670846e-08
0.000889207036048
5.02817094829e-07
-3.93779909039e-08
0.00088922862471
4.32418154358e-07
-3.94568252129e-08
0.000889121616613
3.62908697482e-07
-3.95560815051e-08
0.000889108052411
3.0676559161e-07
-3.97308786768e-08
0.000889095486314
2.50836240144e-07
-3.9772933098e-08
0.000889059627363
2.04072794182e-07
-3.99065640844e-08
0.000889040361903
1.57350621328e-07
-3.99525320804e-08
0.000889061457518
1.16006201044e-07
-4.0041479802e-08
0.000889025431682
7.47213659401e-08
-4.00703788487e-08
0.000889030380086
3.58876162297e-08
-4.01204713712e-08
0.000889029234096
-4.0119201082e-08
0.000889025452423
7.1654501659e-07
-7.91227357159e-08
0.000886930011206
6.93797814612e-07
-7.79317239323e-08
0.000889081497314
6.64190394836e-07
-7.7477577555e-08
0.000889333823932
5.84961568293e-07
-7.7497037844e-08
0.000889210589562
5.02459032904e-07
-7.76095344408e-08
0.000889232187802
4.32154978583e-07
-7.7750494511e-08
0.000889125187805
3.62707785236e-07
-7.78983916678e-08
0.000889111613133
3.06608814179e-07
-7.82230750552e-08
0.000889099047204
2.50713045004e-07
-7.82770053402e-08
0.000889063174416
2.0397365065e-07
-7.85163096125e-08
0.000889043901682
1.57273577689e-07
-7.85897167131e-08
0.000889064986495
1.15946330122e-07
-7.87425524423e-08
0.000889028952646
7.46799813346e-08
-7.87900222708e-08
0.00088903389292
3.58630350778e-08
-7.88718658651e-08
0.000889032740977
-7.88655837652e-08
0.000889028954782
7.18482249868e-07
-1.22450037705e-07
0.00088693500976
6.9555421439e-07
-1.1911535586e-07
0.000889084122993
6.65383921201e-07
-1.17757140759e-07
0.000889335299019
5.8573686617e-07
-1.17774101534e-07
0.000889211844684
5.02867174218e-07
-1.1795182262e-07
0.000889233392562
4.32348892851e-07
-1.18266053404e-07
0.000889126394722
3.62742318076e-07
-1.1849366548e-07
0.000889112802365
3.06558834923e-07
-1.19035570604e-07
0.000889100248434
2.50620894998e-07
-1.19131971686e-07
0.000889064367658
2.03869323633e-07
-1.19502638403e-07
0.000889045096793
1.57180398889e-07
-1.19622495249e-07
0.000889066180886
1.15871781906e-07
-1.19844030304e-07
0.000889030144342
7.46353774903e-08
-1.19921155896e-07
0.000889035090128
3.58490436565e-08
-1.20033129365e-07
0.000889033932425
-1.2002712826e-07
0.000889030157979
7.16141879595e-07
-1.61124053459e-07
0.000886923889867
6.93135640349e-07
-1.5901603907e-07
0.000889076748364
6.63518002525e-07
-1.58201885015e-07
0.000889329848677
5.84398995629e-07
-1.58448172878e-07
0.000889206746675
5.01894769111e-07
-1.58573056374e-07
0.000889228311445
4.31651661592e-07
-1.59069067521e-07
0.000889121371844
3.6223078129e-07
-1.5924129398e-07
0.000889107706844
3.06171064149e-07
-1.59970029681e-07
0.000889095154105
2.5032924311e-07
-1.60057460078e-07
0.000889059232367
2.03641327497e-07
-1.60529480191e-07
0.000889039943481
1.57014216753e-07
-1.60677876104e-07
0.000889061002254
1.1574901818e-07
-1.60943947605e-07
0.000889024945407
7.45611710502e-08
-1.6104807084e-07
0.000889029880632
3.58154438602e-08
-1.61176136211e-07
0.000889028706029
-1.61172888053e-07
0.000889024935062
7.20075985751e-07
-2.10270250799e-07
0.000886969046711
6.96467958939e-07
-2.052519124e-07
0.000889116078938
6.6559213101e-07
-2.03160185041e-07
0.000889366376916
5.85644902543e-07
-2.03690402657e-07
0.000889242805712
5.02404034248e-07
-2.03840150105e-07
0.00088926428447
4.31769735218e-07
-2.04847264807e-07
0.000889157453064
3.62102468053e-07
-2.05032437428e-07
0.00088914371432
3.05936038948e-07
-2.06085826369e-07
0.000889131218347
2.50060924911e-07
-2.06230206869e-07
0.000889095289235
2.0337893827e-07
-2.06844977011e-07
0.000889076026109
1.56799265279e-07
-2.07062503716e-07
0.000889097085588
1.15581389207e-07
-2.07372640718e-07
0.000889061035549
7.44613563539e-08
-2.0752673623e-07
0.000889065976786
3.57776042088e-08
-2.07662945612e-07
0.000889064800081
-2.07671900622e-07
0.000889061041365
7.1633240923e-07
-2.51782036325e-07
0.000886934853555
6.92875608246e-07
-2.49542234616e-07
0.00088909022978
6.62907545495e-07
-2.48464085762e-07
0.000889344609126
5.8384908902e-07
-2.49698255958e-07
0.000889221802163
5.01137806727e-07
-2.49555850793e-07
0.000889243238797
4.30896690776e-07
-2.5110033384e-07
0.000889136516449
3.61486486449e-07
-2.51061898717e-07
0.000889122592118
3.05475619932e-07
-2.52383373112e-07
0.000889110102034
2.49726270002e-07
-2.52507799306e-07
0.000889074081286
2.03109315366e-07
-2.53210876145e-07
0.000889054799024
1.5661085445e-07
-2.53484349784e-07
0.000889075809302
1.15437700867e-07
-2.5379401028e-07
0.000889039733816
7.43814735783e-08
-2.54004111479e-07
0.000889044657641
3.57450076885e-08
-2.54122876958e-07
0.000889043458341
-2.54151016159e-07
0.000889039706314
7.21931834159e-07
-3.08232821596e-07
0.000886972433438
6.96887087579e-07
-3.03592632019e-07
0.000889115509977
6.64685733136e-07
-3.00958432527e-07
0.000889364111081
5.84508109784e-07
-3.03490505993e-07
0.000889240622214
5.00846642056e-07
-3.03269846185e-07
0.000889261967514
4.3025620182e-07
-3.05985909305e-07
0.000889155590136
3.60705866123e-07
-3.05882999405e-07
0.000889141611142
3.04716748908e-07
-3.07672107495e-07
0.000889129303862
2.49073555516e-07
-3.07879189146e-07
0.000889093294711
2.02551624077e-07
-3.08681565953e-07
0.000889074096848
1.56199107591e-07
-3.09076460122e-07
0.000889095114273
1.15129799476e-07
-3.09346411695e-07
0.000889059065466
7.42033305928e-08
-3.09649915918e-07
0.000889063997082
3.5669869908e-08
-3.09721355318e-07
0.000889062801051
-3.09782662244e-07
0.000889059061044
7.17653957005e-07
-3.55554566326e-07
0.00088698202918
6.93475320523e-07
-3.55574599594e-07
0.000889142715275
6.62249021156e-07
-3.54008345197e-07
0.000889399266503
5.83218681846e-07
-3.58611426561e-07
0.000889277278909
5.00015794641e-07
-3.57610964305e-07
0.000889298264459
4.29780811604e-07
-3.61561692944e-07
0.000889191990892
3.60410984959e-07
-3.61105193189e-07
0.000889177628992
3.04466278438e-07
-3.63295837444e-07
0.000889165353673
2.48910523761e-07
-3.63545230153e-07
0.000889129144537
2.02377470812e-07
-3.64360000206e-07
0.000889109935957
1.56092551412e-07
-3.64909854105e-07
0.000889130866429
1.15028285528e-07
-3.65064763641e-07
0.000889094788544
7.41585320682e-08
-3.65494062775e-07
0.000889099690437
3.56530280799e-08
-3.65474511581e-07
0.000889098468677
-3.65584495617e-07
0.000889094732877
7.22952889768e-07
-4.1657059934e-07
0.000887029664234
6.94922043547e-07
-4.19547249731e-07
0.000889165922945
6.60045777821e-07
-4.16876749884e-07
0.000889411047321
5.80676922244e-07
-4.25818333652e-07
0.000889288141144
4.97057906431e-07
-4.24242551916e-07
0.000889309020655
4.27165343009e-07
-4.30330595139e-07
0.000889203791965
3.58256132479e-07
-4.29680344933e-07
0.000889189434455
3.02722247525e-07
-4.32322070469e-07
0.000889177626291
2.47640729211e-07
-4.32753843805e-07
0.000889141468876
2.01382085276e-07
-4.33419248219e-07
0.000889122443612
1.5542452066e-07
-4.34230038883e-07
0.000889143402916
1.14548891408e-07
-4.34130068132e-07
0.000889107382835
7.3894297626e-08
-4.34751519701e-07
0.000889112307914
3.55357834542e-08
-4.34566240141e-07
0.000889111099377
-4.34747101868e-07
0.000889107379874
7.21134347403e-07
-4.73334974446e-07
0.000886992887514
6.95909216358e-07
-4.83152906334e-07
0.000889164956439
6.6059526511e-07
-4.79246031389e-07
0.000889424147215
5.81629612457e-07
-4.94609993995e-07
0.000889304579135
4.97852019218e-07
-4.91750074962e-07
0.000889324026679
4.27793853338e-07
-5.00015357827e-07
0.000889218705559
3.58690645644e-07
-4.99202506973e-07
0.000889203685994
3.02806326948e-07
-5.02175031379e-07
0.00088919186753
2.47665413481e-07
-5.02967311764e-07
0.000889155329903
2.01192047473e-07
-5.03273528026e-07
0.000889136234108
1.55257266713e-07
-5.04485940131e-07
0.000889157015141
1.14338190856e-07
-5.0398572297e-07
0.000889120906822
7.37741078101e-08
-5.04893005119e-07
0.000889125770744
3.54758593135e-08
-5.0448585562e-07
0.00088912453159
-5.04774303459e-07
0.000889120816773
7.1745329775e-07
-5.19448671591e-07
0.000887166468548
6.86425038282e-07
-5.56188927737e-07
0.000889294149752
6.46900421455e-07
-5.50366316911e-07
0.000889527138845
5.71024741833e-07
-5.77073207672e-07
0.000889407205505
4.89598594443e-07
-5.72794758924e-07
0.000889426401161
4.21726469809e-07
-5.83403305998e-07
0.000889324013839
3.54767968543e-07
-5.82436936559e-07
0.000889308913046
3.00123560726e-07
-5.84980515493e-07
0.000889298139498
2.46157439719e-07
-5.86240124651e-07
0.000889261720452
2.00224012302e-07
-5.85586104898e-07
0.000889242969296
1.5480079882e-07
-5.87340693995e-07
0.000889263875375
1.14064027562e-07
-5.86094977745e-07
0.00088922787459
7.36716491578e-08
-5.87382635001e-07
0.000889232812306
3.54332165787e-08
-5.86600620279e-07
0.000889231576205
-5.87032420521e-07
0.000889227881334
7.29466709708e-07
-5.89124329641e-07
0.000887066120577
6.99736597062e-07
-6.28989045968e-07
0.000889258014369
6.52944043202e-07
-6.11186868701e-07
0.000889509760685
5.75300357444e-07
-6.54316859412e-07
0.000889392649413
4.92455333616e-07
-6.48266578413e-07
0.000889407146653
4.23298407015e-07
-6.61953699112e-07
0.00088930450155
3.55768546747e-07
-6.61402556587e-07
0.000889287968348
3.0034729396e-07
-6.63590264101e-07
0.000889277082251
2.46304895526e-07
-6.66006988268e-07
0.000889240306362
2.00083923205e-07
-6.64223603157e-07
0.000889221454995
1.54690496452e-07
-6.66882505092e-07
0.000889242323915
1.13907031642e-07
-6.6479876841e-07
0.00088920622866
7.35857460782e-08
-6.6663289475e-07
0.00088921119087
3.53902515292e-08
-6.65424661992e-07
0.000889209897745
-6.66046686846e-07
0.000889206222081
6.64047290971e-07
-5.22290008866e-07
0.000887346288956
6.47093654646e-07
-6.91895727778e-07
0.000889465657301
6.09810290676e-07
-6.48067929436e-07
0.000889642406092
5.48594475311e-07
-7.0069485155e-07
0.000889509756948
4.7709610059e-07
-6.87372376671e-07
0.00088952707594
4.14363486935e-07
-6.96836504358e-07
0.000889424067188
3.51173524128e-07
-6.95850856947e-07
0.000889410866499
2.97827525252e-07
-6.94383709941e-07
0.000889399072565
2.45086125333e-07
-6.97787145706e-07
0.000889363801929
1.99570960102e-07
-6.93761372436e-07
0.000889344272903
1.54462957592e-07
-6.97344944629e-07
0.000889365909335
1.13908916587e-07
-6.93994131475e-07
0.000889329349619
7.3584845712e-08
-6.96400536902e-07
0.000889334666968
3.54324952168e-08
-6.94622000173e-07
0.000889333158523
-6.95444295072e-07
0.000889329584925
7.32772699661e-07
-5.50599045582e-07
0.000887153584927
6.9102068475e-07
-7.33218170796e-07
0.000889245751226
6.2767302489e-07
-6.64557583964e-07
0.00088946563631
5.54439045272e-07
-7.29956243724e-07
0.000889257999772
4.81004040581e-07
-7.17939219016e-07
0.000889294061097
4.1701788798e-07
-7.21600557446e-07
0.000889164869634
3.52709683057e-07
-7.2342200584e-07
0.000889165720373
3.00420295085e-07
-7.18107796784e-07
0.0008891425155
2.46125573404e-07
-7.22388301271e-07
0.000889115165255
2.01619522455e-07
-7.16772650613e-07
0.000889089885489
1.55237876927e-07
-7.20518843732e-07
0.000889115572381
1.15225541283e-07
-7.16566318027e-07
0.000889076240118
7.40026487369e-08
-7.18908244948e-07
0.000889083451268
3.58676630153e-08
-7.16950619259e-07
0.000889080821907
-7.17734162751e-07
0.000889077782718
5.50194664774e-07
0.000883880258191
5.21452397936e-07
0.000887153602565
5.87808506018e-07
0.000887346267424
5.17676767233e-07
0.000887066119551
4.71147592399e-07
0.000887166369965
4.1399188718e-07
0.000886992818269
3.52640032438e-07
0.000887029448538
3.05001123895e-07
0.000886981852952
2.48304249597e-07
0.000886972070508
2.06568293624e-07
0.000886934537046
1.57278223519e-07
0.000886968520084
1.18485683573e-07
0.00088692341188
7.51225226487e-08
0.000886934318062
3.69472001236e-08
0.00088692936605
0.000886927358596
6.20219841448e-07
-4.2214400578e-08
0.000886341715421
5.65711076458e-07
-4.14752657867e-08
0.000889173258789
5.68190082585e-07
-4.05410401753e-08
0.000889358789846
5.18484308021e-07
-4.05060612397e-08
0.000889298705097
4.68257871863e-07
-4.05157489223e-08
0.000889311213018
4.13148418968e-07
-4.07166394009e-08
0.000889218224966
3.55647973154e-07
-4.07658924496e-08
0.000889200161562
3.0475675655e-07
-4.09739800129e-08
0.000889187108042
2.52434426326e-07
-4.10287099175e-08
0.000889148315107
2.06733724516e-07
-4.12077410467e-08
0.000889126230284
1.6046973469e-07
-4.1258023193e-08
0.000889145293413
1.18597204574e-07
-4.13992628682e-08
0.000889107089228
7.65817634471e-08
-4.14165853451e-08
0.00088911076156
3.66609583896e-08
-4.15155846155e-08
0.000889108610849
-4.14830819007e-08
0.000889104213997
6.19389564059e-07
-8.15088356223e-08
0.000886343405863
5.64808617914e-07
-8.10745314296e-08
0.000889176300907
5.67479540202e-07
-7.96682808069e-08
0.000889362540057
5.17945199063e-07
-7.96527182488e-08
0.000889302588849
4.67848782403e-07
-7.96380055845e-08
0.000889315115735
4.12834417573e-07
-8.00099347468e-08
0.000889222138677
3.55399131161e-07
-8.00607777856e-08
0.000889204063483
3.04554300538e-07
-8.04330329738e-08
0.000889191002678
2.52266638504e-07
-8.05099087315e-08
0.000889152191983
2.06590258283e-07
-8.08192310333e-08
0.000889130088147
1.60349934206e-07
-8.08993763668e-08
0.000889149134121
1.18498563388e-07
-8.11341098429e-08
0.000889110904758
7.6508149218e-08
-8.11600531646e-08
0.000889114563184
3.66145791189e-08
-8.13192058512e-08
0.000889112388652
-8.12575983476e-08
0.000889107987117
6.21038706918e-07
-1.2592748524e-07
0.000886350722217
5.66535601088e-07
-1.23634051043e-07
0.000889180686563
5.68672962482e-07
-1.20670340151e-07
0.000889365365585
5.18708723169e-07
-1.20607407968e-07
0.00088930511781
4.68248453437e-07
-1.20581069809e-07
0.000889317568355
4.13015930776e-07
-1.21230507471e-07
0.000889224573675
3.5542322826e-07
-1.21309760729e-07
0.000889206472326
3.04494568761e-07
-1.21902527755e-07
0.000889193408447
2.52166308909e-07
-1.22028096148e-07
0.000889154585773
2.0647815095e-07
-1.22487099792e-07
0.00088913247164
1.60251788781e-07
-1.2261643709e-07
0.000889151519833
1.18424509315e-07
-1.22945646013e-07
0.000889113274496
7.64691561484e-08
-1.22993321075e-07
0.000889116949714
3.66128058827e-08
-1.23208623771e-07
0.000889114758501
-1.23126029317e-07
0.000889110386789
6.18538704381e-07
-1.65856460931e-07
0.000886339295533
5.63881829334e-07
-1.64877349385e-07
0.000889173785833
5.66616081588e-07
-1.61651846492e-07
0.000889360843523
5.17184938536e-07
-1.61721402317e-07
0.000889301040936
4.67117322701e-07
-1.61586122609e-07
0.000889313541095
4.12180918213e-07
-1.62471378541e-07
0.000889220583919
3.54781396445e-07
-1.62493125829e-07
0.000889202441221
3.03983404122e-07
-1.63258175795e-07
0.000889189356803
2.51759227929e-07
-1.63390648678e-07
0.00088915048917
2.06142379765e-07
-1.63949964728e-07
0.000889128319985
1.59988765526e-07
-1.64116059682e-07
0.000889147339346
1.18223303507e-07
-1.64495299747e-07
0.000889109023891
7.63381876889e-08
-1.64569503379e-07
0.000889112695187
3.65525772951e-08
-1.64808795604e-07
0.000889110438854
-1.64720529711e-07
0.000889106095774
6.21768497322e-07
-2.15981478053e-07
0.00088638899007
5.67169034279e-07
-2.12046388995e-07
0.000889216620651
5.6874660384e-07
-2.06398174915e-07
0.000889400052681
5.18440832968e-07
-2.0656581973e-07
0.000889339629675
4.67659635247e-07
-2.06379270814e-07
0.000889351983714
4.12362436225e-07
-2.07744318452e-07
0.000889259051749
3.54703076625e-07
-2.07808425266e-07
0.000889240872336
3.03773292561e-07
-2.08863601883e-07
0.000889227831962
2.51507034587e-07
-2.09066893733e-07
0.000889188947138
2.05885892168e-07
-2.0975787667e-07
0.00088916679344
1.59776546397e-07
-2.10001958204e-07
0.000889185813
1.18059915489e-07
-2.10425799095e-07
0.000889147492854
7.62456902373e-08
-2.10551515746e-07
0.000889151177477
3.65278384777e-08
-2.1080413407e-07
0.000889148910695
-2.10722464773e-07
0.000889144594056
6.17692521201e-07
-2.5887940984e-07
0.000886354626911
5.63033215068e-07
-2.57134086047e-07
0.000889191663258
5.65624274253e-07
-2.50990701699e-07
0.000889379898234
5.16248032768e-07
-2.5151739716e-07
0.000889320367556
4.66090896283e-07
-2.51038676106e-07
0.000889332753883
4.11264500168e-07
-2.52789134257e-07
0.000889239903835
3.53888871919e-07
-2.52760816033e-07
0.000889221618078
3.03131854126e-07
-2.54019987724e-07
0.000889208566021
2.51010922616e-07
-2.54243617864e-07
0.000889169593089
2.05474389563e-07
-2.54986578383e-07
0.000889147376429
1.59465242214e-07
-2.55303219864e-07
0.000889166346607
1.17821960359e-07
-2.5570738023e-07
0.000889127944065
7.6100767603e-08
-2.55897269692e-07
0.000889131622101
3.6469206545e-08
-2.56123810732e-07
0.000889129280457
-2.5606586466e-07
0.000889125001722
6.21849489444e-07
-3.15441077269e-07
0.000886397788082
5.67021938928e-07
-3.10404624907e-07
0.000889221442841
5.677020413e-07
-3.00812650905e-07
0.0008894028456
5.17102959499e-07
-3.0196309942e-07
0.000889342378817
4.66002194924e-07
-3.01338160806e-07
0.000889354571772
4.10844303382e-07
-3.03967575431e-07
0.000889261944216
3.53281443832e-07
-3.0401700585e-07
0.00088924365489
3.0247375571e-07
-3.05636755337e-07
0.000889230780602
2.50421926223e-07
-3.05987622267e-07
0.000889191813343
2.04951194715e-07
-3.06785606494e-07
0.000889169674201
1.59072434522e-07
-3.07246838554e-07
0.000889188656063
1.17526985173e-07
-3.07593427092e-07
0.000889150272096
7.59333723287e-08
-3.07890618467e-07
0.000889153967309
3.64077812971e-08
-3.08062046698e-07
0.000889151622299