/*--------------------------------*- C++ -*----------------------------------*\
| =========                 |                                                 |
| \\      /  F ield         | OpenFOAM: The Open Source CFD Toolbox           |
|  \\    /   O peration     | Version:  2406                                  |
|   \\  /    A nd           | Website:  www.openfoam.com                      |
|    \\/     M anipulation  |                                                 |
\*---------------------------------------------------------------------------*/
FoamFile
{
    version     2.0;
    format      ascii;
    arch        "LSB;label=32;scalar=64";
    class       volVectorField;
    location    "0.01";
    object      U;
}
// * * * * * * * * * * * * * * * * * * * * * * * * * * * * * * * * * * * * * //

dimensions      [0 1 -1 0 0 0 0];

internalField   nonuniform List<vector> 
29767
(
(0.000502989641702 1.57136994906e-06 0.798941999197)
(0.000910052492257 -2.69668458788e-06 0.800102861203)
(0.000454193332578 -5.28458644142e-06 0.80030073827)
(0.00049095401273 -5.83661940712e-06 0.800132802728)
(0.000283030329268 -5.94535884521e-06 0.800128964823)
(0.000285022520206 -6.08486702358e-06 0.800074406996)
(0.000183693115729 -6.09553684396e-06 0.800071270033)
(0.000176115599701 -6.16138292437e-06 0.800049430616)
(0.00012042376961 -6.17455754934e-06 0.800046845576)
(0.000109974309396 -6.21748831496e-06 0.800037528788)
(7.48592904072e-05 -6.22512265694e-06 0.800035666223)
(6.36032678373e-05 -6.25235717534e-06 0.800031581754)
(3.79195039261e-05 -6.25539761696e-06 0.800030525178)
(2.64995480233e-05 -6.27142785107e-06 0.800028937197)
(4.56686105981e-06 -6.26827687449e-06 0.800028604163)
(0.000502517872171 -4.88345268066e-05 0.798941574672)
(0.000909547489132 -3.13386379806e-05 0.800102961226)
(0.000453809924451 -2.85765456569e-05 0.800301035859)
(0.000490678992534 -2.81101287051e-05 0.800133148682)
(0.000282840163459 -2.78837850802e-05 0.800129311211)
(0.000284881269294 -2.79717031895e-05 0.800074755324)
(0.000183597705235 -2.78700935657e-05 0.800071616229)
(0.000176038399025 -2.79570146515e-05 0.800049776704)
(0.000120372197234 -2.79546053796e-05 0.800047190104)
(0.000109927279744 -2.80415955811e-05 0.80003787549)
(7.48278514793e-05 -2.80559642106e-05 0.800036010964)
(6.3574429184e-05 -2.81163672809e-05 0.800031927681)
(3.79007715385e-05 -2.81273470174e-05 0.800030869554)
(2.64851757903e-05 -2.81607830988e-05 0.800029282758)
(4.5606849672e-06 -2.81563782777e-05 0.800028948386)
(0.000503510184872 -4.20323251633e-05 0.798946421784)
(0.00091081796741 -3.52555562436e-05 0.80010511794)
(0.000454590178751 -3.82023877144e-05 0.800302713085)
(0.000491236679999 -3.89194213845e-05 0.800134721502)
(0.00028311455033 -3.88514866067e-05 0.800130843883)
(0.000285026066742 -3.91906722034e-05 0.800076278746)
(0.000183635701401 -3.90649438857e-05 0.800073155144)
(0.000176021475495 -3.92580864756e-05 0.800051322595)
(0.000120336706755 -3.92474949958e-05 0.800048738762)
(0.000109871997555 -3.93958834332e-05 0.800039433786)
(7.47843265711e-05 -3.94067787711e-05 0.800037569363)
(6.35318873903e-05 -3.94996282951e-05 0.800033490792)
(3.78750967001e-05 -3.95080548091e-05 0.800032432228)
(2.64705152e-05 -3.95575950698e-05 0.800030847666)
(4.56202639814e-06 -3.95451168064e-05 0.800030512954)
(0.000502054205604 -0.000102165851317 0.798944635404)
(0.000909356539277 -6.8458271144e-05 0.800105348344)
(0.000453510631646 -6.4786130203e-05 0.800303648693)
(0.000490499829647 -6.44523521041e-05 0.800135825269)
(0.000282636422587 -6.40895769939e-05 0.800131931807)
(0.000284683273017 -6.45237529748e-05 0.800077318913)
(0.000183417485843 -6.43596425085e-05 0.800074238942)
(0.000175840217575 -6.46677170524e-05 0.800052406798)
(0.000120230843788 -6.46739471808e-05 0.800049812082)
(0.00010976665669 -6.49052677781e-05 0.800040512805)
(7.47238172094e-05 -6.49429202443e-05 0.800038640525)
(6.3473133557e-05 -6.5078655188e-05 0.800034565446)
(3.78427987209e-05 -6.51068563051e-05 0.80003350213)
(2.64480975637e-05 -6.51737285458e-05 0.800031920787)
(4.558348086e-06 -6.51654424996e-05 0.80003158293)
(0.000503971562718 -8.7491945673e-05 0.798957088921)
(0.000911879071039 -7.08180246233e-05 0.800110790622)
(0.000454831066226 -7.45588019014e-05 0.800307876803)
(0.000491389433531 -7.56955499561e-05 0.800139843)
(0.000282957412522 -7.52514881498e-05 0.800135853505)
(0.000284782189587 -7.58776341902e-05 0.800081171209)
(0.000183356574718 -7.55365050236e-05 0.800078219846)
(0.00017568704971 -7.5922189768e-05 0.800056423069)
(0.000120095522768 -7.58348005667e-05 0.800053831835)
(0.000109601752238 -7.60979415566e-05 0.80004455747)
(7.46106787236e-05 -7.61035247092e-05 0.800042685438)
(6.33679292369e-05 -7.62471173605e-05 0.800038621863)
(3.77800146215e-05 -7.6268187369e-05 0.800037558003)
(2.64119027763e-05 -7.63359128137e-05 0.800035981817)
(4.55392479188e-06 -7.63229054767e-05 0.800035643331)
(0.000501479796621 -0.000170758805276 0.798952010419)
(0.000909806494532 -0.000115070015372 0.800110913374)
(0.000453390814488 -0.000109219432023 0.800309599256)
(0.000490532860513 -0.000109478684233 0.800141928094)
(0.000282518997987 -0.000108866984292 0.800137831697)
(0.000284459600623 -0.000110039402612 0.800083085264)
(0.000183238889255 -0.000109796881084 0.800080146539)
(0.000175517478525 -0.0001105379549 0.800058358124)
(0.000120051316586 -0.000110531956338 0.800055724027)
(0.000109496802279 -0.000110951949958 0.800046456534)
(7.45745795575e-05 -0.000111024822511 0.800044564316)
(6.3308642158e-05 -0.000111219869925 0.800040505573)
(3.77542145886e-05 -0.000111284325204 0.80003943311)
(2.63934951756e-05 -0.000111363456823 0.800037861096)
(4.5528390498e-06 -0.000111364464582 0.800037518623)
(0.000503473420299 -0.000140102810679 0.798979690849)
(0.000913131522639 -0.000114502460539 0.800122770256)
(0.000454266731521 -0.00011909782139 0.800318838337)
(0.000490907314968 -0.00012141680193 0.800150933492)
(0.000282213060208 -0.000120007620339 0.800146667904)
(0.000283901427721 -0.000121281043865 0.800092016883)
(0.000182751177603 -0.000120454023474 0.800089209676)
(0.000174929313956 -0.000121228168316 0.80006755065)
(0.000119679259769 -0.000120974223829 0.800064919727)
(0.000109108752972 -0.000121373374846 0.800055711632)
(7.43436818218e-05 -0.000121380114747 0.800053822109)
(6.31095033882e-05 -0.000121540532601 0.800049788568)
(3.76375643473e-05 -0.000121601354279 0.800048718125)
(2.63325018839e-05 -0.000121656358232 0.800047156411)
(4.53456962748e-06 -0.000121660220893 0.800046814241)
(0.000500572790929 -0.000268915161539 0.798966384761)
(0.000912145762117 -0.000181916472461 0.800122159046)
(0.000453853715521 -0.000170903764049 0.800321473624)
(0.000490959127127 -0.000173633673321 0.800154337243)
(0.000282738559445 -0.000172261674648 0.800149663861)
(0.00028407067311 -0.000175228725963 0.800095039496)
(0.000183217018883 -0.000174683991661 0.800091953925)
(0.000174975711835 -0.000176209842006 0.800070304792)
(0.000119905857737 -0.000176138812902 0.800067552493)
(0.000109092777325 -0.000176753266647 0.800058351278)
(7.44108292292e-05 -0.000176888918308 0.800056418631)
(6.3090653674e-05 -0.000177066442743 0.800052392417)
(3.76415309775e-05 -0.00017720622924 0.800051310176)
(2.63366617238e-05 -0.000177241749759 0.800049754454)
(4.53220765841e-06 -0.000177273848437 0.800049408933)
(0.000497021169154 -0.000209233561296 0.7990275508)
(0.0009135321207 -0.000176183301645 0.800148177634)
(0.00045141527025 -0.000179624103158 0.800341322338)
(0.000488196012579 -0.000185706889131 0.800175156365)
(0.000280332520678 -0.000181708535676 0.80017021526)
(0.00028150420933 -0.000184707209909 0.800116182001)
(0.000181749120891 -0.000182796623506 0.800113238547)
(0.000173473873346 -0.000184281894195 0.800091946863)
(0.00011915647747 -0.000183789090485 0.800089201344)
(0.00010838035477 -0.000184295075048 0.80008012954)
(7.40539577522e-05 -0.000184377346524 0.8000782019)
(6.2811290451e-05 -0.00018445433881 0.80007421152)
(3.74768560395e-05 -0.000184631381141 0.80007312688)
(2.62734547717e-05 -0.000184605135827 0.800071578965)
(4.48892434544e-06 -0.000184658593496 0.800071231802)
(0.00049943662069 -0.000422327098808 0.798994467629)
(0.000921018044528 -0.00029609649943 0.800145435117)
(0.000456399804357 -0.000269549695015 0.800345512685)
(0.00049181591235 -0.000280785866493 0.800180114732)
(0.000283999345531 -0.00027692175765 0.800173855185)
(0.000282921280654 -0.00028387877213 0.800120377187)
(0.00018364123773 -0.000282447464385 0.800116180533)
(0.00017400178395 -0.000285029748951 0.800095034029)
(0.000119965103813 -0.000284840092096 0.800092010015)
(0.00010860797904 -0.000285415284019 0.800083072018)
(7.43811178578e-05 -0.000285710475072 0.800081155082)
(6.29659042868e-05 -0.000285626927641 0.800077293826)
(3.75971165876e-05 -0.000285936390739 0.800076250848)
(2.63750841341e-05 -0.000285801797848 0.800074721061)
(4.48509909165e-06 -0.000285907064174 0.80007437046)
(0.000456740640746 -0.000317072977064 0.799131204375)
(0.000906349066065 -0.00027772652814 0.800206674351)
(0.000440179587281 -0.000268607061936 0.80039336384)
(0.000478233633666 -0.000287930520999 0.800232511513)
(0.000276600193123 -0.000277357316376 0.800225888157)
(0.000275978135268 -0.000284761821439 0.800173850521)
(0.000180656641424 -0.000281080228923 0.800170207895)
(0.000171055560964 -0.000283494054557 0.800149651381)
(0.000118713218855 -0.000282948847219 0.800146651959)
(0.000107461287408 -0.000283261340308 0.800137809337)
(7.378157345e-05 -0.000283674403268 0.8001358274)
(6.25592647082e-05 -0.000283358575124 0.800131898809)
(3.72855369505e-05 -0.000283808148082 0.800130807426)
(2.63115105583e-05 -0.00028353618549 0.800129268625)
(4.36907468108e-06 -0.000283697762804 0.800128919133)
(0.000502758228401 -0.000662365159784 0.799052526623)
(0.000957175585525 -0.000542116634783 0.800197413276)
(0.000464185835231 -0.000454515294242 0.800399529538)
(0.000491310646164 -0.000491950464359 0.800241389526)
(0.00028716611885 -0.000478871165834 0.8002325145)
(0.000279836263383 -0.000492455480006 0.800180114716)
(0.00018464461407 -0.000488827917979 0.800175152663)
(0.000172415522562 -0.00049159665229 0.800154330027)
(0.000120110496024 -0.000491534049812 0.800150922167)
(0.000108063045465 -0.000491164038436 0.800141912271)
(7.42170218616e-05 -0.000492005676051 0.800139823297)
(6.29166302144e-05 -0.000491119114949 0.800135800299)
(3.73511054138e-05 -0.000491837499503 0.80013469249)
(2.65388099881e-05 -0.000491279758384 0.800133114562)
(4.26525423816e-06 -0.000491534621978 0.800132764574)
(0.000236360021346 -0.000534843879477 0.799354862146)
(0.000863327260989 -0.000464682563707 0.800358231619)
(0.000391706651162 -0.000392140493204 0.800540791867)
(0.000453879888249 -0.000464624392902 0.800399544049)
(0.00026785322295 -0.000440613859401 0.800393380347)
(0.000268607276605 -0.000456826394107 0.80034552702)
(0.000178577382187 -0.000451828145252 0.800341345808)
(0.000169701768617 -0.000454268346804 0.800321480421)
(0.000117808455253 -0.000454675935989 0.800318837195)
(0.000107820637898 -0.000453792486675 0.800309593006)
(7.30980342902e-05 -0.000455223198666 0.800307864755)
(6.32674916252e-05 -0.000453894602485 0.800303631411)
(3.66511154345e-05 -0.00045496331748 0.800302690065)
(2.70206816201e-05 -0.000454173870962 0.800301008017)
(3.72744928505e-06 -0.000454546954508 0.800300705066)
(0.000559557234302 -0.000931426436792 0.799144019005)
(0.0012174586545 -0.00121775436782 0.800187056125)
(0.000464287193677 -0.000863650981466 0.800358260084)
(0.000541487465696 -0.000957494805925 0.800197448589)
(0.000276989239274 -0.00090666560813 0.800206710232)
(0.000295149795095 -0.000921326087722 0.800145468533)
(0.000175145436828 -0.000913839481337 0.800148212453)
(0.000180713328378 -0.000912445680926 0.800122187651)
(0.000113221724793 -0.000913434028582 0.800122795719)
(0.000113671991707 -0.000910100478691 0.800110935596)
(6.9365137179e-05 -0.000912173674646 0.800110809455)
(6.69453593758e-05 -0.000909641465361 0.800105364362)
(3.37123122862e-05 -0.000911101762931 0.800105130216)
(2.97940732049e-05 -0.000909820076561 0.800102971231)
(1.14821603946e-06 -0.000910322691773 0.800102867337)
(0.00118212364269 -0.00118219985849 0.79663876294)
(0.000931056577174 -0.000559653625471 0.799144043251)
(0.000534349503001 -0.000236473956068 0.79935489325)
(0.000661539393668 -0.000502867859739 0.79905255852)
(0.00031612905244 -0.000456847922005 0.799131230089)
(0.0004210930729 -0.000499537917513 0.798994494637)
(0.000207897106136 -0.000497117989056 0.799027569057)
(0.000267345048235 -0.000500662625353 0.798966401583)
(0.000138449608453 -0.000503559599431 0.798979695718)
(0.000168940169634 -0.000501555775129 0.79895201589)
(8.56129321625e-05 -0.000504043498318 0.798957080412)
(0.000100201014911 -0.000502114855003 0.798944628617)
(4.00321874814e-05 -0.000503566865806 0.798946400224)
(4.6831091038e-05 -0.00050256356396 0.798941555866)
(-3.58310604741e-06 -0.000503032865505 0.798941965882)
(0.000395220186854 6.86853059486e-07 0.798761664112)
(0.000388780521123 -4.55663898981e-06 0.800089039382)
(0.000370552184738 -7.55385865902e-06 0.800395017546)
(0.000356580721654 -8.17100274369e-06 0.800235021749)
(0.000283580821758 -8.35715863852e-06 0.800240791546)
(0.000266256330169 -8.47305526694e-06 0.800158511629)
(0.000206603768314 -8.5465640928e-06 0.80015102153)
(0.000190231496568 -8.62985110865e-06 0.80011642673)
(0.000145231427245 -8.65804344522e-06 0.800110732662)
(0.000129051995023 -8.70976590329e-06 0.800095727275)
(9.41106031054e-05 -8.72720518998e-06 0.800092290048)
(7.79479861507e-05 -8.75953967053e-06 0.800085711488)
(4.89087970644e-05 -8.7685524726e-06 0.800083827087)
(3.27952219491e-05 -8.78696327263e-06 0.800081359616)
(6.44687977031e-06 -8.78638607732e-06 0.80008061753)
(0.000394867133704 -4.54743611907e-05 0.798760942508)
(0.000388274192292 -3.89667414548e-05 0.800089096455)
(0.000370137705763 -3.54550673721e-05 0.800395483336)
(0.000356269483566 -3.48097624101e-05 0.800235555206)
(0.000283355034796 -3.47053378914e-05 0.800241325505)
(0.000266086396135 -3.467678358e-05 0.800159045962)
(0.000206482803197 -3.47114720166e-05 0.800151545511)
(0.000190130319731 -3.48189033547e-05 0.800116948927)
(0.0001451593689 -3.48377661769e-05 0.800111242337)
(0.000128988038162 -3.49327291239e-05 0.800096228286)
(9.40651510249e-05 -3.4964096983e-05 0.800092782485)
(7.79084525812e-05 -3.50306576772e-05 0.800086195173)
(4.88822950271e-05 -3.50527724242e-05 0.800084305555)
(3.27760767139e-05 -3.50891731139e-05 0.80008183003)
(6.43888747166e-06 -3.50884187242e-05 0.800081086876)
(0.000395811167273 -4.1050934908e-05 0.798766015621)
(0.000389453790467 -4.62528007672e-05 0.800092501314)
(0.000370889884863 -4.9270083328e-05 0.800398192179)
(0.000356836460198 -4.99354687405e-05 0.800238139791)
(0.000283646544004 -5.015984992e-05 0.800243885852)
(0.000266248571235 -5.03443098206e-05 0.800161619861)
(0.000206537268376 -5.04705353732e-05 0.800154110247)
(0.000190115848771 -5.07171426909e-05 0.800119527387)
(0.000145120734155 -5.07591527691e-05 0.80011381904)
(0.000128926889432 -5.09268609744e-05 0.800098805076)
(9.40128876118e-05 -5.09728072404e-05 0.800095362868)
(7.78592865928e-05 -5.10764940151e-05 0.800088772665)
(4.8850263713e-05 -5.11053352258e-05 0.800086891279)
(3.27595784132e-05 -5.11584446085e-05 0.800084410158)
(6.44026033274e-06 -5.11524447572e-05 0.800083678726)
(0.00039471989056 -9.28515508517e-05 0.798763305819)
(0.00038799081657 -8.40018481511e-05 0.800092630329)
(0.000369703208644 -7.95051339914e-05 0.800399747025)
(0.000355972966011 -7.88576876699e-05 0.800239939936)
(0.000283041742583 -7.8823577782e-05 0.800245672679)
(0.000265788995328 -7.89863970433e-05 0.800163463595)
(0.000206234576479 -7.91085244593e-05 0.800155855673)
(0.00018985975789 -7.94531905862e-05 0.800121262516)
(0.000144954217695 -7.95197137165e-05 0.800115515287)
(0.000128776147593 -7.97589661837e-05 0.800100476223)
(9.39158650053e-05 -7.98397263218e-05 0.800097013906)
(7.77759360516e-05 -7.99830285652e-05 0.800090398668)
(4.88003561649e-05 -8.003717996e-05 0.800088512955)
(3.27289989757e-05 -8.01064880294e-05 0.800086008801)
(6.4343554271e-06 -8.01061568958e-05 0.800085287343)
(0.000396686786542 -8.33452671649e-05 0.798776472579)
(0.00039030764631 -8.98820286243e-05 0.800101355502)
(0.000371022857185 -9.34922125777e-05 0.80040660051)
(0.000356919618282 -9.44071852925e-05 0.800246522572)
(0.000283452060436 -9.45701835782e-05 0.800252220627)
(0.000265926657327 -9.49556633448e-05 0.800170190219)
(0.000206215212792 -9.50198832777e-05 0.800162475837)
(0.000189727268289 -9.54698776819e-05 0.800127932627)
(0.000144819534704 -9.55026093396e-05 0.800122187063)
(0.000128608584492 -9.57815160015e-05 0.800107168056)
(9.37891533878e-05 -9.58570529055e-05 0.800103710318)
(7.76618708722e-05 -9.60109141662e-05 0.800097101415)
(4.87268423004e-05 -9.60688547759e-05 0.800095224805)
(3.26906646181e-05 -9.61394474125e-05 0.80009271773)
(6.43004884174e-06 -9.61365786409e-05 0.800092009048)
(0.000394785902751 -0.000146589260056 0.79876959037)
(0.00038813660538 -0.000134560618032 0.800101303624)
(0.000369273195064 -0.000128671618214 0.800409706972)
(0.000355735033556 -0.000128338134175 0.800250205292)
(0.000282679850851 -0.000128329051047 0.80025579766)
(0.000265324567664 -0.000129057054403 0.800173873993)
(0.000205873969489 -0.000129192010054 0.800165916721)
(0.00018940582109 -0.000129892076757 0.800131353055)
(0.000144647428845 -0.000130021956299 0.800125512576)
(0.00012842328721 -0.000130418046246 0.800110463326)
(9.36865602459e-05 -0.000130572931592 0.800106960936)
(7.7563944658e-05 -0.000130766059385 0.800100320967)
(4.86715943894e-05 -0.000130874614609 0.800098433046)
(3.26611735643e-05 -0.000130952639063 0.800095897726)
(6.42508672449e-06 -0.000130965878062 0.800095201596)
(0.000397756000167 -0.000128747070267 0.79879921969)
(0.000391296469719 -0.000138310961364 0.800120705579)
(0.0003705151775 -0.000143023163843 0.8004246792)
(0.000356455018896 -0.000144706993468 0.800264783813)
(0.000282688677734 -0.000144543193736 0.800270354343)
(0.000264997393915 -0.000145521470204 0.800188853305)
(0.000205498792408 -0.000145337049878 0.800180787715)
(0.000188923711757 -0.000146080498263 0.800146378704)
(0.00014429629992 -0.000146091442676 0.800140546449)
(0.000128057792686 -0.000146467417551 0.800125565495)
(9.34398516634e-05 -0.000146602513394 0.800122066402)
(7.73587582088e-05 -0.000146757325321 0.800115446625)
(4.85387813284e-05 -0.000146876376685 0.800113565129)
(3.25984696398e-05 -0.000146927576313 0.800111029827)
(6.4052841521e-06 -0.000146945984134 0.800110345217)
(0.000395073340188 -0.000208313938296 0.798782520268)
(0.000389278580284 -0.000193662836651 0.800119770319)
(0.000368770603284 -0.000186076345402 0.800430321415)
(0.000355503740706 -0.000187171572831 0.800271646744)
(0.000282211330518 -0.000187074560592 0.800276681319)
(0.000264553283083 -0.000189093645859 0.800195215595)
(0.000205414230606 -0.000189155784582 0.80018670053)
(0.00018867912612 -0.000190368936935 0.800152286007)
(0.000144260828562 -0.000190590374348 0.800146233592)
(0.000127910004043 -0.000191095572417 0.800131232241)
(9.33922872071e-05 -0.000191381868537 0.800127642772)
(7.72860087974e-05 -0.00019153288261 0.800120994953)
(4.84973191117e-05 -0.000191743818512 0.800119086242)
(3.25890170265e-05 -0.00019176951258 0.800116523487)
(6.395296535e-06 -0.00019181952548 0.800115846594)
(0.000398128767852 -0.000180504444639 0.798849183283)
(0.00039204944439 -0.000195149496201 0.800163826836)
(0.000367608015914 -0.000201013140665 0.800464280943)
(0.000354270045266 -0.000204966405698 0.800304771733)
(0.000280664394636 -0.000203936301047 0.80030965711)
(0.000262859238687 -0.000206275754175 0.800229344663)
(0.00020424541821 -0.000205698157094 0.800220729939)
(0.000187489809601 -0.000206882437918 0.800186721671)
(0.000143543034349 -0.000206940182201 0.800180687689)
(0.000127240991819 -0.000207329929617 0.800165841126)
(9.29748660298e-05 -0.000207633529455 0.800162258884)
(7.69753383525e-05 -0.000207663841167 0.80015566096)
(4.82852415023e-05 -0.000207921314224 0.800153767412)
(3.25132722002e-05 -0.000207872291908 0.800151217671)
(6.34331076689e-06 -0.000207944617517 0.80015055563)
(0.00039535177107 -0.000275025985971 0.798809322378)
(0.000392846340292 -0.000263597818841 0.800159949814)
(0.00036790659788 -0.000254813482606 0.800472682421)
(0.00035459832093 -0.000260678850037 0.800316413051)
(0.000281413919574 -0.000259941796055 0.800319334408)
(0.000263003332985 -0.000264313327621 0.800238500441)
(0.000204808689338 -0.00026415958438 0.800229251574)
(0.000187417742062 -0.000265867011393 0.800195126052)
(0.000143716563597 -0.000266290051317 0.800188645013)
(0.000127101662776 -0.000266630171695 0.800173670168)
(9.29095066055e-05 -0.00026720141316 0.800169852452)
(7.68596164718e-05 -0.000267072954631 0.800163128916)
(4.8170936527e-05 -0.000267494517377 0.800161148559)
(3.24968090197e-05 -0.000267336591452 0.800158571254)
(6.29449389264e-06 -0.000267464836727 0.800157914649)
(0.000393626966096 -0.000242587350494 0.798961702948)
(0.000390533978386 -0.000264702992196 0.800266944799)
(0.00035977126716 -0.000269185496492 0.800550831644)
(0.000347643755266 -0.000280185215332 0.800394290995)
(0.000276676768656 -0.00027773155133 0.800396584938)
(0.000258641497155 -0.000282472148161 0.800319335549)
(0.0002024823883 -0.000281711617623 0.800309578506)
(0.000185416453709 -0.000283261263276 0.800276606075)
(0.00014275720461 -0.000283717362777 0.800270177136)
(0.000126394978706 -0.000283712246659 0.800255623395)
(9.2545735178e-05 -0.000284456141797 0.800251929793)
(7.67185926872e-05 -0.000284046819151 0.800245382083)
(4.80087832686e-05 -0.000284618151708 0.800243475368)
(3.25454667292e-05 -0.000284323644541 0.800240911071)
(6.19835225481e-06 -0.000284514748887 0.800240266744)
(0.000396533760176 -0.000325386544985 0.798873427176)
(0.00040079372814 -0.000343397436224 0.800249505989)
(0.000364176877407 -0.000332515980794 0.800552082568)
(0.000349967131404 -0.000350851636534 0.800398670163)
(0.000279128979969 -0.00034852655983 0.800394240447)
(0.000259376406285 -0.000355481767361 0.800316356443)
(0.000203510258965 -0.000355149455016 0.800304632206)
(0.000185515631301 -0.000356382441851 0.800271504048)
(0.00014292198946 -0.000357322302482 0.800264540988)
(0.000126408371961 -0.000356604173295 0.80024995395)
(9.23887736855e-05 -0.000357771792034 0.800246158117)
(7.67624112139e-05 -0.000356824521334 0.800239564052)
(4.77971708581e-05 -0.000357666401231 0.800237650214)
(3.26660268818e-05 -0.000357095141616 0.800235051947)
(6.03195637821e-06 -0.000357382282969 0.800234416955)
(0.000353680953344 -0.000318747698122 0.79921523937)
(0.000372112205483 -0.000344308388124 0.800514904224)
(0.00033509797919 -0.000335719627492 0.800723290924)
(0.00033163084716 -0.000364794869654 0.800552084754)
(0.000268130961705 -0.000360383629549 0.80055078416)
(0.000253514542895 -0.000368509844481 0.800472629014)
(0.000199560857482 -0.000368213464561 0.80046413676)
(0.000184425419336 -0.0003693597228 0.800430188508)
(0.000141246651349 -0.00037109390768 0.80042445297)
(0.000126750266394 -0.000369844372811 0.800409474894)
(9.1484326669e-05 -0.000371582858211 0.800406261247)
(7.74198979168e-05 -0.000370253344154 0.800399399324)
(4.71424225732e-05 -0.00037142683598 0.800397736082)
(3.33210551946e-05 -0.000370662815492 0.800395016276)
(5.4234948318e-06 -0.000371064009136 0.800394451779)
(0.000389321964589 -0.000252207063837 0.798972901051)
(0.00041155508025 -0.000411950390746 0.800225304073)
(0.00034374630759 -0.000372556421551 0.800514887141)
(0.000342519158902 -0.000401223766206 0.800249500082)
(0.000263665884128 -0.000390957635697 0.800266874424)
(0.000262282772938 -0.000393257079993 0.800159890463)
(0.000193695805056 -0.000392459669925 0.800163667858)
(0.000191980517563 -0.000389682696818 0.800119626152)
(0.000136520672731 -0.00039170194992 0.800120436934)
(0.000132610829753 -0.00038853391114 0.800101049926)
(8.78554906181e-05 -0.00039070656797 0.800100962454)
(8.18924669959e-05 -0.000388379308943 0.800092251447)
(4.41039233635e-05 -0.000389842229165 0.800091982465)
(3.68143189245e-05 -0.000388650150909 0.800088589051)
(2.40425870595e-06 -0.000389154791347 0.800088405633)
(0.000349374495369 -0.000349437962562 0.79635073027)
(0.000251828019407 -0.000389413918205 0.798972925342)
(0.000318210084428 -0.000353794839204 0.79921523146)
(0.000324483964951 -0.000396638926017 0.798873442087)
(0.000241550460521 -0.00039373454799 0.798961636736)
(0.000273668622085 -0.000395450647546 0.798809287269)
(0.000179039133228 -0.000398231371118 0.798849031203)
(0.000206588958908 -0.000395165290586 0.798782408122)
(0.00012693451479 -0.000397849538017 0.798798957463)
(0.000144594887226 -0.000394869805256 0.798769375645)
(8.12872392193e-05 -0.000396772001715 0.798776089057)
(9.06996523378e-05 -0.000394795335368 0.798762971882)
(3.88630642161e-05 -0.000395888448189 0.798765510587)
(4.32831311509e-05 -0.0003949345199 0.798760483645)
(-2.88377116374e-06 -0.000395289970268 0.798761048035)
(0.000375878748354 6.88697929687e-08 0.797733089392)
(0.000302115406059 -5.15696351947e-06 0.800223601147)
(0.00031661476288 -8.03376487976e-06 0.800420310765)
(0.000305107391925 -8.64718069239e-06 0.800356141605)
(0.000262063445211 -8.82168364226e-06 0.800341967359)
(0.000250169201187 -8.9802197312e-06 0.800278739624)
(0.000201755830625 -9.04663702249e-06 0.800262108526)
(0.000187243883925 -9.15043012968e-06 0.800225673113)
(0.000146101661068 -9.18764603982e-06 0.800214948684)
(0.000129989229357 -9.26480053381e-06 0.80019509432)
(9.61273964808e-05 -9.28585354661e-06 0.800188541133)
(7.93740469566e-05 -9.34617009415e-06 0.800178199758)
(5.03379978789e-05 -9.35037952167e-06 0.80017460479)
(3.34142708422e-05 -9.39415818439e-06 0.800170177959)
(6.67989856175e-06 -9.37884638032e-06 0.800168915632)
(0.000375517748458 -4.62377665938e-05 0.797732274538)
(0.000301565227316 -4.02032196148e-05 0.800223941288)
(0.000316171387117 -3.63074883864e-05 0.800421252288)
(0.000304765310843 -3.56565817005e-05 0.800357198331)
(0.000261809213294 -3.54909786056e-05 0.800343040565)
(0.000249971161691 -3.55554836375e-05 0.800279827595)
(0.000201607230864 -3.55413285835e-05 0.800263188089)
(0.000187118047579 -3.56649517357e-05 0.800226754812)
(0.000146004233312 -3.56881387033e-05 0.800216018053)
(0.000129901720982 -3.58077672976e-05 0.800196159375)
(9.60567904252e-05 -3.58397354391e-05 0.800189594943)
(7.93126296904e-05 -3.59361213002e-05 0.800179248156)
(5.02906601362e-05 -3.59498090425e-05 0.800175643495)
(3.33803889847e-05 -3.60149855299e-05 0.800171214072)
(6.66250740502e-06 -3.59941588615e-05 0.800169944439)
(0.000376189138016 -4.29062095388e-05 0.797741024053)
(0.000302702424613 -4.84621269067e-05 0.800230097464)
(0.000316933852456 -5.08240589725e-05 0.800426034422)
(0.000305322058449 -5.14589109172e-05 0.800361706462)
(0.000262097400784 -5.16045821216e-05 0.800347482229)
(0.000250126321438 -5.19531867059e-05 0.800284258493)
(0.000201655817189 -5.2019438354e-05 0.800267596991)
(0.000187099406105 -5.23024144605e-05 0.800231171504)
(0.000145959840498 -5.23642680257e-05 0.800220422406)
(0.000129837996835 -5.25845785816e-05 0.800200567112)
(9.59990729382e-05 -5.2636450374e-05 0.800193997913)
(7.92639466334e-05 -5.28008332665e-05 0.80018364924)
(5.02591232109e-05 -5.28136204303e-05 0.800180046505)
(3.33699225191e-05 -5.2923526657e-05 0.800175612184)
(6.67153903914e-06 -5.28760261566e-05 0.800174352327)
(0.00037507457058 -9.48135260967e-05 0.797738067658)
(0.000301086188869 -8.67486023657e-05 0.800231079367)
(0.000315639999399 -8.11543523695e-05 0.80042905868)
(0.000304353726351 -8.04534179055e-05 0.800365118899)
(0.000261390636593 -8.02734935974e-05 0.800350937802)
(0.000249591625149 -8.06452422665e-05 0.80028776006)
(0.000201276464555 -8.06610867923e-05 0.800271065615)
(0.000186777444828 -8.10261475257e-05 0.800234652101)
(0.000145723584095 -8.11034170881e-05 0.80022386713)
(0.000129630104025 -8.13877272878e-05 0.800204004033)
(9.58406115931e-05 -8.14718156983e-05 0.800197409156)
(7.91354483387e-05 -8.16735305088e-05 0.800187048345)
(5.01679737771e-05 -8.17102570705e-05 0.800183430781)
(3.3318001342e-05 -8.18372162064e-05 0.800178988871)
(6.65754393032e-06 -8.17931369473e-05 0.800177725222)
(0.000376376367464 -8.65780661408e-05 0.797758373025)
(0.000303301396794 -9.3565262877e-05 0.800245218559)
(0.000317017357644 -9.56409756251e-05 0.800440012197)
(0.000305309035385 -9.64204740305e-05 0.800375503143)
(0.000261805574766 -9.64438084254e-05 0.800361201005)
(0.000249761376418 -9.70520946809e-05 0.800298045944)
(0.000201296641435 -9.70544344364e-05 0.800281327081)
(0.000186662440553 -9.75253620666e-05 0.800244967098)
(0.000145599886674 -9.75953557975e-05 0.800234170123)
(0.000129470209412 -9.79258194473e-05 0.800214335223)
(9.57133631781e-05 -9.80162203983e-05 0.800207735661)
(7.90255241776e-05 -9.82367994952e-05 0.800197383634)
(5.00954743939e-05 -9.82780598389e-05 0.800193767614)
(3.32870874242e-05 -9.84141272819e-05 0.800189324937)
(6.66044933741e-06 -9.83604196436e-05 0.800188071085)
(0.000374455317166 -0.000149627788484 0.797751563511)
(0.000300782658636 -0.000138336337864 0.800246715426)
(0.000315013343706 -0.00013010028011 0.800445708271)
(0.000303892367723 -0.000129510526312 0.800381993739)
(0.000260825163589 -0.000129272987479 0.800367717993)
(0.00024903222002 -0.000130173201602 0.800304647635)
(0.000200833259173 -0.000130235894863 0.800287833426)
(0.000186244064097 -0.000130918651724 0.800251503615)
(0.000145324969773 -0.000131074887372 0.800240632972)
(0.000129209872338 -0.000131504039598 0.800220792682)
(9.55296678775e-05 -0.000131672085501 0.800214149131)
(7.88735733359e-05 -0.00013192430117 0.800203780455)
(4.99906175043e-05 -0.000132017063575 0.800200144322)
(3.32356522371e-05 -0.000132158506117 0.800195688839)
(6.6487439628e-06 -0.000132121729529 0.800194434401)
(0.000376086237878 -0.000133502130618 0.797789744501)
(0.000303702756862 -0.000142874938889 0.800272977035)