/*--------------------------------*- C++ -*----------------------------------*\
| =========                 |                                                 |
| \\      /  F ield         | OpenFOAM: The Open Source CFD Toolbox           |
|  \\    /   O peration     | Version:  2406                                  |
|   \\  /    A nd           | Website:  www.openfoam.com                      |
|    \\/     M anipulation  |                                                 |
\*---------------------------------------------------------------------------*/
FoamFile
{
    version     2.0;
    format      ascii;
    arch        "LSB;label=32;scalar=64";
    class       volVectorField;
    location    "0.01";
    object      U_0;
}
// * * * * * * * * * * * * * * * * * * * * * * * * * * * * * * * * * * * * * //

dimensions      [0 1 -1 0 0 0 0];

internalField   nonuniform List<vector> 
29767
(
(0.000500271815384 1.55969660908e-06 0.79894524859)
(0.000907617408917 -2.67399213588e-06 0.800102167518)
(0.000452068664975 -5.2531044506e-06 0.80030007779)
(0.000489416092183 -5.80370471789e-06 0.800132303719)
(0.000281783166123 -5.91242732194e-06 0.800128652841)
(0.000284098629407 -6.05162471595e-06 0.800074154848)
(0.000182939145684 -6.0621005367e-06 0.800071086881)
(0.000175540108991 -6.12795384314e-06 0.800049279092)
(0.000119954354314 -6.14097907416e-06 0.80004672058)
(0.000109615627384 -6.18373847274e-06 0.800037418781)
(7.45759809816e-05 -6.19128792034e-06 0.800035568672)
(6.33989042672e-05 -6.21837408244e-06 0.800031492346)
(3.77762249079e-05 -6.22137507688e-06 0.800030441114)
(2.64207993691e-05 -6.23731293436e-06 0.800028857022)
(4.5434191127e-06 -6.23417053309e-06 0.800028525043)
(0.000499801809772 -4.86027972699e-05 0.798944825699)
(0.000907112826672 -3.12423735989e-05 0.800102266289)
(0.000451685446518 -2.84877974958e-05 0.800300373691)
(0.000489141106115 -2.80229940656e-05 0.800132647939)
(0.000281593017858 -2.77974726964e-05 0.800128997674)
(0.000283957175337 -2.78851440096e-05 0.800074504516)
(0.000182844202237 -2.77825516541e-05 0.800071431216)
(0.000175463087543 -2.78697890061e-05 0.800049623398)
(0.00011990304792 -2.78668304267e-05 0.800047063372)
(0.000109568817932 -2.79535112773e-05 0.800037763775)
(7.45447450852e-05 -2.79675699426e-05 0.80003591172)
(6.33702476481e-05 -2.8027704672e-05 0.800031836566)
(3.77576291918e-05 -2.80385335408e-05 0.800030783799)
(2.64065380806e-05 -2.80718193487e-05 0.800029200866)
(4.53730425565e-06 -2.80673997928e-05 0.800028867569)
(0.000500789463803 -4.18384537085e-05 0.798949649977)
(0.000908380774594 -3.51165824248e-05 0.800104418638)
(0.00045246469028 -3.80534711407e-05 0.800302047573)
(0.000489697984157 -3.87692621531e-05 0.800134217659)
(0.000281867348564 -3.870232203e-05 0.800130527782)
(0.000284101134551 -3.90415296758e-05 0.800076032779)
(0.000182883153414 -3.89136874554e-05 0.800072966677)
(0.000175446464419 -3.91072168148e-05 0.800051165911)
(0.000119868158041 -3.90959512164e-05 0.800048608756)
(0.000109513929645 -3.924378319e-05 0.800039318827)
(7.4501597197e-05 -3.9254294722e-05 0.800037466905)
(6.33279444095e-05 -3.93466601695e-05 0.80003339644)
(3.77321191569e-05 -3.93549065029e-05 0.800032343266)
(2.6391931557e-05 -3.94041715275e-05 0.800030762546)
(4.53861936853e-06 -3.93917107319e-05 0.800030428939)
(0.000499338547667 -0.000101696132581 0.798947869604)
(0.000906919836841 -6.82426374567e-05 0.800104644401)
(0.000451385330368 -6.45764753094e-05 0.80030297726)
(0.000488960930016 -6.42440784861e-05 0.800135315255)
(0.000281389367614 -6.3882305679e-05 0.80013161056)
(0.000283757293123 -6.43175136781e-05 0.800077077025)
(0.000182665728835 -6.41496886829e-05 0.800074044344)
(0.000175265558631 -6.44575422656e-05 0.800052243912)
(0.000119762944223 -6.44627783008e-05 0.800049675999)
(0.000109409126595 -6.46932273403e-05 0.800040391832)
(7.44415799663e-05 -6.47302622126e-05 0.800038532087)
(6.32696175085e-05 -6.48653672779e-05 0.80003446507)
(3.77001117867e-05 -6.48932790597e-05 0.800033407183)
(2.63697172923e-05 -6.49598272395e-05 0.800031829618)
(4.5349892588e-06 -6.49515266447e-05 0.80003149292)
(0.000501246892181 -8.70737707968e-05 0.798960267455)
(0.000909438418305 -7.05442132319e-05 0.800110077425)
(0.000452705484943 -7.42741733007e-05 0.800307197719)
(0.000489850452436 -7.5409512956e-05 0.800139325804)
(0.000281712052884 -7.49668201152e-05 0.800135526219)
(0.000283857367319 -7.55944733763e-05 0.800080924876)
(0.000182606163495 -7.52498254046e-05 0.800078018489)
(0.000175113674836 -7.56340344066e-05 0.80005625247)
(0.000119628890961 -7.55459905856e-05 0.800053688275)
(0.000109245168951 -7.58077990743e-05 0.800044428966)
(7.43291980641e-05 -7.5812808695e-05 0.800042569519)
(6.3164905399e-05 -7.59555122897e-05 0.800038513953)
(3.76376491938e-05 -7.59762687643e-05 0.800037455578)
(2.63336563472e-05 -7.60435449924e-05 0.800035883137)
(4.53056130161e-06 -7.60305342312e-05 0.800035545858)
(0.000498762924932 -0.000169988350171 0.79895520343)
(0.000907363933595 -0.000114712466727 0.800110188968)
(0.000451264143346 -0.000108864792668 0.800308906932)
(0.000488993009847 -0.000109124574203 0.800141397301)
(0.000281274022433 -0.000108512326611 0.800137491879)
(0.000283535837027 -0.000109684924406 0.800082823481)
(0.000182488858774 -0.000109438788073 0.800079932744)
(0.000174945238433 -0.000110176635477 0.800058174234)
(0.000119585467589 -0.000110169588895 0.800055567407)
(0.000109141171505 -0.000110587528254 0.800046314906)
(7.42938045872e-05 -0.000110659591423 0.800044435357)
(6.31063270572e-05 -0.000110853578917 0.800040384563)
(3.76122888586e-05 -0.000110917677475 0.800039317641)
(2.63155655725e-05 -0.000110996361251 0.800037749298)
(4.52951745583e-06 -0.000110997345674 0.800037408098)
(0.000500745008159 -0.000139408673762 0.798982768749)
(0.000910686837909 -0.00011405223326 0.800122031186)
(0.000452145120346 -0.000118637504406 0.800318131542)
(0.000489371284423 -0.0001209535543 0.800150389386)
(0.000280973611168 -0.000119545418765 0.800146314396)
(0.000282982769921 -0.000120817178526 0.800091736809)
(0.000182005121035 -0.000119987501588 0.800088982668)
(0.000174360405151 -0.000120757571319 0.800067352383)
(0.000119215817546 -0.000120502834093 0.800064748795)
(0.000108755032541 -0.000120899460602 0.800055555382)
(7.40640759457e-05 -0.000120905580662 0.800053678564)
(6.29078994221e-05 -0.000121064647463 0.800049652909)
(3.74960106403e-05 -0.000121125020615 0.800048588157)
(2.62547303268e-05 -0.000121179401383 0.800047030126)
(4.51125504568e-06 -0.000121183200856 0.800046689315)
(0.000497853498813 -0.000267718521325 0.798969494591)
(0.000909689874031 -0.000181368812395 0.800121393659)
(0.000451725337339 -0.000170351567008 0.800320740844)
(0.000489419970872 -0.000173077176883 0.800153764634)
(0.000281498417786 -0.000171702042015 0.800149283216)
(0.000283152410525 -0.000174663175756 0.800094734122)
(0.00018247172801 -0.000174115407843 0.800091699492)
(0.000174408211931 -0.000175634924754 0.800070078882)
(0.00011944332555 -0.000175562592974 0.800067353927)
(0.000108740202762 -0.000176173616183 0.80005816737)
(7.4131961299e-05 -0.000176308285723 0.800056247664)
(6.28900860682e-05 -0.000176484448276 0.800052229471)
(3.75006562615e-05 -0.000176624054867 0.800051153071)
(2.62594083192e-05 -0.000176659258931 0.800049601046)
(4.50896281853e-06 -0.000176691367255 0.800049256977)
(0.000494300335353 -0.000208152877325 0.799030425536)
(0.000911084351752 -0.000175467137309 0.80014739464)
(0.00044929982455 -0.000178907085071 0.800340579412)
(0.000486669463802 -0.000184976989153 0.800174558239)
(0.000279106144798 -0.000180977317982 0.800169806967)
(0.000280597323566 -0.000183965207201 0.800115840744)
(0.000181012039745 -0.000182053166021 0.800112957142)
(0.000172912600273 -0.000183530161972 0.800091692657)
(0.000118697895734 -0.000183036705904 0.800088974337)
(0.000108030858349 -0.000183538663896 0.800079916025)
(7.37764160485e-05 -0.000183620691839 0.800078000565)
(6.2610823349e-05 -0.000183696300581 0.800074017239)
(3.73354529675e-05 -0.000183872737987 0.800072938432)
(2.61957631938e-05 -0.000183845579509 0.800071394266)
(4.46554280118e-06 -0.000183898753656 0.800071048684)
(0.000496718393577 -0.000420457253419 0.798997406996)
(0.000918537391619 -0.000295240472812 0.800144583719)
(0.000454278278245 -0.000268683349246 0.800344689889)
(0.000490284013733 -0.000279906994851 0.800179452407)
(0.000282772826772 -0.000276029482678 0.800173385477)
(0.000282015657854 -0.000282967428847 0.800119977913)
(0.000182905671447 -0.000281534894716 0.800115839115)
(0.000173443560732 -0.000284105767572 0.800094728684)
(0.000119509207343 -0.000283915796001 0.800091729733)
(0.000108262091996 -0.000284485855286 0.800082810228)
(7.41070535785e-05 -0.000284780123109 0.800080908405)
(6.27691061387e-05 -0.00028469534946 0.800077052114)
(3.7457805794e-05 -0.000285005955731 0.800076004956)
(2.62983807715e-05 -0.000284872187993 0.800074470733)
(4.46187143151e-06 -0.000284977812715 0.800074118497)
(0.000454141151533 -0.000315378043111 0.799133659808)
(0.000903916628428 -0.000276547150456 0.80020580191)
(0.000438129357541 -0.000267459676579 0.800392492732)
(0.000476738341602 -0.000286734525441 0.800231792723)
(0.000275405018867 -0.000276157533178 0.800225353292)
(0.000275091558604 -0.000283530707775 0.800173380926)
(0.000179931826381 -0.000279849256879 0.800169799573)
(0.000170503226613 -0.000282249365236 0.800149270879)
(0.000118258931955 -0.000281704927509 0.800146298426)
(0.000107115170343 -0.000282011908137 0.800137469698)
(7.35059279818e-05 -0.000282424708614 0.800135500105)
(6.23613196132e-05 -0.000282107229716 0.800131577804)
(3.71460381121e-05 -0.00028255676433 0.800130491379)
(2.62348846082e-05 -0.000282284913281 0.800128955376)
(4.34599440172e-06 -0.000282446571876 0.800128607237)
(0.000500072471066 -0.000659405964113 0.799055149725)
(0.000954636231715 -0.000540633316834 0.800196370968)
(0.00046212033473 -0.000453078860224 0.80039848866)
(0.000489823705718 -0.00049045965556 0.800240492093)
(0.000285974750904 -0.000477372015608 0.800231795561)
(0.00027896317732 -0.000490919752603 0.800179452344)
(0.000183921165508 -0.000487297575979 0.800174554293)
(0.000171866339876 -0.000490053713577 0.800153757384)
(0.000119655233329 -0.000489994273599 0.800150377861)
(0.000107717538416 -0.000489620466642 0.800141381464)
(7.39400832052e-05 -0.000490463032479 0.800139305897)
(6.27177481753e-05 -0.000489576583214 0.800135290275)
(3.72106497117e-05 -0.00049029523086 0.800134188448)
(2.64613733845e-05 -0.000489738361171 0.800132613824)
(4.24218782877e-06 -0.000489993265765 0.800132265395)
(0.000234538515625 -0.000532047247084 0.799356408568)
(0.000860939231253 -0.000462614006345 0.800357191448)
(0.000389840528923 -0.000390271743574 0.800539636565)
(0.000452447290555 -0.000462556220278 0.800398503089)
(0.000266710382566 -0.000438560996106 0.80039250902)
(0.000267746609249 -0.000454702298825 0.800344704113)
(0.00017786671968 -0.000449709933459 0.80034060308)
(0.000169156848157 -0.000452137490709 0.800320747574)
(0.000117356016446 -0.00045255187338 0.8003181302)
(0.00010747450622 -0.000451663430596 0.800308900674)
(7.28223834864e-05 -0.00045309526562 0.800307185502)
(6.30671162098e-05 -0.000451767047161 0.800302960012)
(3.65117904207e-05 -0.000452835604631 0.800302024419)
(2.69415219868e-05 -0.000452047277845 0.800300345919)
(3.70571726528e-06 -0.000452420200221 0.800300044493)
(0.000556806237971 -0.000926923723096 0.799146329093)
(0.00121428293638 -0.00121457684985 0.800186045215)
(0.000462220854733 -0.00086126088449 0.800357219581)
(0.000540007894637 -0.000954953449523 0.800196405962)
(0.000275814190785 -0.000904231188965 0.800205837317)
(0.000294299395683 -0.000918843564762 0.800144616807)
(0.000174435477323 -0.000911389861145 0.800147428986)
(0.000180172978006 -0.000909988016282 0.800121421935)
(0.00011277924939 -0.000910987538659 0.800122056085)
(0.000113322904335 -0.000907656203564 0.800110210863)
(6.91002055134e-05 -0.000909731292735 0.800110095646)
(6.67389063422e-05 -0.000907203133766 0.80010466007)
(3.35828461021e-05 -0.000908662934233 0.800104430277)
(2.97072474423e-05 -0.000907383890783 0.800102275923)
(1.13520155085e-06 -0.000907886089711 0.800102173012)
(0.00117713862185 -0.00117721445403 0.796652975391)
(0.00092655652089 -0.000556902024214 0.799146353115)
(0.000531555985228 -0.000234651606984 0.79935643924)
(0.000658586060275 -0.000500181299516 0.799055181307)
(0.000314440464334 -0.000454247628217 0.799133685023)
(0.000419231966322 -0.000496818953787 0.798997433723)
(0.000206825619624 -0.0004943964113 0.799030443264)
(0.000266159477546 -0.000497942698613 0.798969511161)
(0.000137767004396 -0.000500830586333 0.798982773073)
(0.000168182496073 -0.000498838399148 0.79895520868)
(8.52080024369e-05 -0.00050131836952 0.798960258393)
(9.97450879031e-05 -0.000499398840807 0.798947862612)
(3.9852533285e-05 -0.000500845829766 0.798949627875)
(4.66134551089e-05 -0.000499847292312 0.798944806692)
(-3.55696032157e-06 -0.000500314858966 0.798945214763)
(0.000393383330712 6.78590658508e-07 0.798766561289)
(0.000386509438728 -4.51697745076e-06 0.80008861393)
(0.000368401110199 -7.50147225612e-06 0.800393965616)
(0.00035470183259 -8.11660114542e-06 0.800233921109)
(0.000281988358067 -8.30178470727e-06 0.800239884616)
(0.000264940503156 -8.41785912411e-06 0.800157779779)
(0.000205497402731 -8.49080597424e-06 0.800150432618)
(0.000189326300249 -8.57363226781e-06 0.800115929428)
(0.000144480731611 -8.60159078241e-06 0.800110306965)
(0.00012845148089 -8.65305622837e-06 0.800095345624)
(9.36336559566e-05 -8.67031507896e-06 0.800091941262)
(7.75927790901e-05 -8.70247832694e-06 0.800085382178)
(4.86609847097e-05 -8.71136803708e-06 0.800083512805)
(3.26546710787e-05 -8.72970314831e-06 0.800081052516)
(6.40655377486e-06 -8.72907083899e-06 0.800080315723)
(0.000393031823301 -4.52362570876e-05 0.798765843174)
(0.000386003990154 -3.87925521475e-05 0.80008866868)
(0.000367987212682 -3.52989988665e-05 0.800394427604)
(0.000354391142941 -3.46574850999e-05 0.80023445065)
(0.00028176284763 -3.45519097775e-05 0.80024041463)
(0.000264771420139 -3.45251267847e-05 0.8001583075)
(0.000205377003076 -3.45581021531e-05 0.800150952599)
(0.000189225667138 -3.46645433328e-05 0.800116447824)
(0.000144409111572 -3.46826197084e-05 0.800110812739)
(0.000128387926921 -3.47770628404e-05 0.800095842757)
(9.35885188939e-05 -3.48079013439e-05 0.80009242985)
(7.75535252102e-05 -3.48741181872e-05 0.800085862028)
(4.86346714046e-05 -3.48959081421e-05 0.80008398749)
(3.26356707146e-05 -3.49321717712e-05 0.800081519159)
(6.39861941808e-06 -3.49312955393e-05 0.80008078135)
(0.000393970233302 -4.08441003077e-05 0.798770894381)
(0.000387180700037 -4.60062251511e-05 0.800092064134)
(0.000368737863154 -4.9015405343e-05 0.800397128761)
(0.000354957555115 -4.96806717209e-05 0.80023702795)
(0.000282053681343 -4.99019491027e-05 0.800242967488)
(0.000264935048393 -5.00880233255e-05 0.80016086647)
(0.00020543276307 -5.0212306721e-05 0.80015350944)
(0.000189212143986 -5.04572127421e-05 0.800119018933)
(0.000144371332073 -5.04980953761e-05 0.800113381723)
(0.000128327427085 -5.06648818602e-05 0.800098411914)
(9.35368100762e-05 -5.07100944496e-05 0.800095002483)
(7.75047462282e-05 -5.08131879142e-05 0.800088431849)
(4.86029127931e-05 -5.08415805136e-05 0.800086565437)
(3.26192864228e-05 -5.08944562267e-05 0.800084091578)
(6.39998728293e-06 -5.08883035569e-05 0.800083365368)
(0.000392883445141 -9.23785437229e-05 0.798768197087)
(0.000385719708292 -8.36154814703e-05 0.80009218473)
(0.000367552476672 -7.91421661487e-05 0.800398670272)
(0.000354095418824 -7.8500024824e-05 0.800238814254)
(0.000281449079052 -7.84623574281e-05 0.800244740035)
(0.000264478108283 -7.86254979646e-05 0.800162686261)
(0.000205132203042 -7.87458016102e-05 0.800155240431)
(0.000188957498129 -7.90886184587e-05 0.800120740631)
(0.000144205981371 -7.91532723726e-05 0.800115064287)
(0.000128177697348 -7.93913307179e-05 0.800100069538)
(9.3440556298e-05 -7.94709861035e-05 0.80009664001)
(7.74220486901e-05 -7.96135232775e-05 0.80009004447)
(4.85534147699e-05 -7.96670181157e-05 0.800088173726)
(3.25889798036e-05 -7.97360325791e-05 0.800085676948)
(6.39412665646e-06 -7.97354760479e-05 0.80008496066)
(0.000394838832911 -8.29132956889e-05 0.798781307273)
(0.000388031744133 -8.94105040697e-05 0.800100886245)
(0.00036887016479 -9.30162788866e-05 0.800405504146)
(0.000355041856338 -9.39323728127e-05 0.800245377994)
(0.000281859376015 -9.40908072346e-05 0.800251267732)
(0.000264617337816 -9.44735014349e-05 0.800169389211)
(0.000205116001851 -9.45373427049e-05 0.800161839808)
(0.000188826775555 -9.49854465634e-05 0.800127391069)
(0.000144073130378 -9.50161788491e-05 0.800121715925)
(0.00012801142237 -9.52935136944e-05 0.800106741254)
(9.33149422744e-05 -9.53678097782e-05 0.800103316162)
(7.73087520851e-05 -9.55206115835e-05 0.800096727024)
(4.84804433186e-05 -9.55777995228e-05 0.800094865286)
(3.25508934421e-05 -9.56479704911e-05 0.800092365645)
(6.38984438343e-06 -9.56448594148e-05 0.800091662022)
(0.000392945020584 -0.000145851498398 0.798774452752)
(0.000385861810826 -0.000133937533751 0.800100813126)
(0.0003671218781 -0.00012807676917 0.800408580011)
(0.000353858066812 -0.000127747773663 0.800249028547)
(0.000281088451 -0.000127733703783 0.800254811875)
(0.000264016397716 -0.000128455641968 0.800173041785)
(0.000204776910014 -0.000128589559307 0.800165248275)
(0.000188507057235 -0.000129286892072 0.800130779794)
(0.000143902681779 -0.00012941427394 0.800125009918)
(0.000127827655753 -0.000129808402379 0.800110005121)
(9.32135519369e-05 -0.000129961757449 0.800106535456)
(7.72118728895e-05 -0.000130153682144 0.800099915355)
(4.84258308534e-05 -0.000130261272954 0.800098042261)
(3.25218218756e-05 -0.000130338820433 0.800095514484)
(6.38492509017e-06 -0.000130351739586 0.800094823307)
(0.000395897988075 -0.000128063273084 0.798803956846)
(0.000389017160376 -0.000137577958319 0.800120165283)
(0.000368364994449 -0.000142288072204 0.800423509862)
(0.000354580919005 -0.000143971765833 0.800263565738)
(0.00028110246334 -0.000143802195897 0.800269325177)
(0.000263692603387 -0.000144773164782 0.800187981574)
(0.000204405716137 -0.000144588086793 0.800180075089)
(0.00018802816398 -0.000145327614553 0.800145761128)
(0.00014355424449 -0.000145336379011 0.800139999358)
(0.000127464122937 -0.000145709683177 0.800125062514)
(9.29683686228e-05 -0.000145843145265 0.800121596039)
(7.70078065093e-05 -0.000145996232778 0.800114996137)
(4.82938191377e-05 -0.000146114182061 0.800113129431)
(3.24594937715e-05 -0.000146164713053 0.800110601731)
(6.36519424034e-06 -0.000146182778968 0.800109921989)
(0.000393224205593 -0.000207268251274 0.798787315305)
(0.000386996284778 -0.000192757242665 0.800119177515)
(0.000366622923531 -0.000185202345066 0.800429082591)
(0.000353629615837 -0.000186297585095 0.800270357756)
(0.00028062727678 -0.000186190719004 0.800275581363)
(0.000263251492704 -0.000188198883072 0.800194270233)
(0.000204323592167 -0.000188257030256 0.800185917529)
(0.000187786523694 -0.000189464491651 0.800151598316)
(0.00014352093222 -0.000189682988575 0.800145616969)
(0.000127318787586 -0.00019018502191 0.80013065981)
(9.29227188855e-05 -0.00019046963121 0.800127103113)
(7.69368295283e-05 -0.000190619020519 0.800120474916)
(4.82533556567e-05 -0.000190828599991 0.80011858068)
(3.24506905541e-05 -0.000190853558212 0.800116025343)
(6.35527598765e-06 -0.000190903122568 0.800115353101)
(0.000396261068513 -0.000179522853692 0.798853701922)
(0.000389768073594 -0.000194094593762 0.800163128255)
(0.000365482885028 -0.000199952936206 0.800462931229)
(0.000352412038346 -0.000203898845889 0.800303391535)
(0.000279096504029 -0.000202860781289 0.800308464241)
(0.000261566685034 -0.000205183923069 0.800228314331)
(0.00020316241397 -0.000204604669972 0.800219852802)
(0.000186602892482 -0.000205781332061 0.800185938548)
(0.000142807022043 -0.000205836661556 0.800179975727)
(0.000126652455174 -0.000206222493474 0.800165173218)
(9.25070774749e-05 -0.000206524014546 0.800161624274)
(7.66278553646e-05 -0.000206551345316 0.800155047054)
(4.80427852727e-05 -0.000206806780957 0.800153168812)
(3.237574324e-05 -0.000206756656322 0.800150627007)
(6.30353347171e-06 -0.000206828500149 0.800149969726)
(0.000393492217103 -0.000273626726256 0.79881396109)
(0.000390549148669 -0.000262339403407 0.80015911953)
(0.0003657765706 -0.000253571690661 0.800471201225)
(0.000352741946663 -0.000259417534528 0.800314882301)
(0.000279851081531 -0.000258667005249 0.800317991085)
(0.000261718288142 -0.00026301908447 0.8002373157)
(0.000203727330701 -0.000262857843124 0.800228221845)
(0.0001865348256 -0.00026455604712 0.80019418128)
(0.000142981190044 -0.000264976119911 0.800187774656)
(0.000126514146484 -0.000265312928044 0.800172839367)
(9.24420421023e-05 -0.000265883057455 0.800169053746)
(7.6513847078e-05 -0.000265753229541 0.800162353643)
(4.79302589098e-05 -0.000266172277193 0.800160397902)
(3.23607944127e-05 -0.000266013143307 0.800157835558)
(6.25504959671e-06 -0.000266140612338 0.800157186312)
(0.000391757483854 -0.000241246575502 0.798965719535)
(0.000388267295873 -0.000263235719338 0.800265881029)
(0.000357692360123 -0.000267712826985 0.800549158295)
(0.000345828488747 -0.0002786655236 0.800392596061)
(0.000275147283207 -0.000276194483854 0.800395077468)
(0.000257375882936 -0.00028090174591 0.800317992234)
(0.000201417300094 -0.000280136218791 0.800308386175)
(0.000184544373964 -0.000281669716343 0.800275506643)
(0.000142029034296 -0.000282123695761 0.80026914915)
(0.00012581339551 -0.000282113486215 0.80025463881)
(9.2080931652e-05 -0.0002828561349 0.800250978815)
(7.63724348805e-05 -0.000282446938527 0.80024445143)
(4.77664006758e-05 -0.000283018127825 0.800242559711)
(3.24075869002e-05 -0.000282724499229 0.800240003058)
(6.15862961781e-06 -0.000282915417462 0.800239363283)
(0.00039464677687 -0.00032363280724 0.798877634353)
(0.00039848795824 -0.000341661163527 0.80024814877)
(0.000362117540753 -0.000330797349951 0.800550177414)
(0.00034817311734 -0.000349051392929 0.800396758084)
(0.000277616816958 -0.000346705043025 0.800392545826)
(0.000258124155564 -0.000353619200751 0.800314826069)
(0.000202453047133 -0.000353285295983 0.800303252891)
(0.000184653340944 -0.000354502206727 0.800270216019)
(0.000142199466411 -0.000355442117462 0.800263324507)
(0.000125831650426 -0.000354721217679 0.800248778901)
(9.19283676324e-05 -0.00035588806331 0.800245015939)
(7.64196388949e-05 -0.000354941157039 0.800238440928)
(4.75577170061e-05 -0.000355781724159 0.800236541608)
(3.25291292608e-05 -0.000355211212029 0.800233950838)
(5.99302361373e-06 -0.000355497851658 0.800233320318)
(0.000352030662788 -0.000316969005438 0.799218053101)
(0.000369968529824 -0.000342375360346 0.800513191579)
(0.000333197138919 -0.000333814202682 0.800721237846)
(0.000329918496125 -0.000362730988519 0.800550179573)
(0.000266665843784 -0.000358300176024 0.800549111125)
(0.000252281866664 -0.000366375405421 0.800471148166)
(0.000198511025649 -0.000366084151696 0.80046278751)
(0.000183563170848 -0.000367207753351 0.800428950571)
(0.000140524279472 -0.000368939438103 0.800423285146)
(0.000126169087317 -0.000367688897605 0.800408349505)
(9.10228130639e-05 -0.000369426011404 0.800405167146)
(7.70718290647e-05 -0.00036809859003 0.800398324956)
(4.69030760323e-05 -0.000369270811654 0.800396675711)
(3.31803391921e-05 -0.000368508486526 0.800393963768)
(5.38656270149e-06 -0.000368909128596 0.800393403628)
(0.000387470706426 -0.000250613469216 0.798976784317)
(0.000409174201774 -0.000409566732941 0.800224156827)
(0.000341817216782 -0.000370409426574 0.800513174567)
(0.000340789097661 -0.000398914845457 0.800248142772)
(0.000262205980452 -0.000388687863595 0.800265811095)
(0.000261033763118 -0.00039095696173 0.800159060441)
(0.000192651317884 -0.000390175304608 0.800162970425)
(0.000191086860667 -0.000387397576372 0.800119034208)
(0.000135800565865 -0.000389419791046 0.800119898514)
(0.000132001694479 -0.000386256393913 0.800100561088)
(8.73986331485e-05 -0.000388427912271 0.800100495948)
(8.15212752545e-05 -0.000386105584395 0.800091808442)
(4.38729807937e-05 -0.000387566498575 0.800091548911)
(3.66557339615e-05 -0.000386377459537 0.800088164837)
(2.38038720977e-06 -0.000386881204305 0.800087984603)
(0.000347522662721 -0.000347585818209 0.796367805857)
(0.000250237083064 -0.000387562004256 0.798976808297)
(0.00031643501775 -0.000352143592106 0.799218045173)
(0.000322736832881 -0.000394751082321 0.798877648894)
(0.000240217081521 -0.000391864164777 0.798965653753)
(0.000272279324927 -0.000393590273347 0.798813925894)
(0.000178068190823 -0.000396362834475 0.798853550938)
(0.000205555957453 -0.000393315368287 0.798787203603)
(0.00012626403376 -0.000395990678109 0.798803696493)
(0.000143871795271 -0.000393028168659 0.798774239197)
(8.08705035496e-05 -0.000394923222685 0.798780926464)
(9.02425021473e-05 -0.000392958169952 0.798767865198)
(3.86725350079e-05 -0.000394046726646 0.798770392878)
(4.30612467806e-05 -0.000393098531054 0.798765387303)
(-2.85898295897e-06 -0.000393452372336 0.798765949475)
(0.000374238451413 6.52158999301e-08 0.797742742663)
(0.0003003357712 -5.11145253863e-06 0.800223089409)
(0.000314856230755 -7.97564927467e-06 0.800418669117)
(0.000303519858809 -8.58679148425e-06 0.800354397752)
(0.000260608257841 -8.76068586049e-06 0.800340390644)
(0.000248912776535 -8.91829198984e-06 0.800277363823)
(0.000200650941803 -8.98479108458e-06 0.800260912271)
(0.000186314064749 -9.0880507113e-06 0.800224606929)
(0.00014531126907 -9.12512197321e-06 0.800213983875)
(0.000129347718416 -9.20181621708e-06 0.800194201239)
(9.56116469738e-05 -9.22274269625e-06 0.800187701479)
(7.89871963304e-05 -9.2826632546e-06 0.800177398452)
(5.00667695745e-05 -9.28684797113e-06 0.800173829165)
(3.32601880679e-05 -9.33033610289e-06 0.800169420036)
(6.63631355699e-06 -9.31513177703e-06 0.800168164871)
(0.000373879298385 -4.59846234916e-05 0.797741932326)
(0.000299786866086 -4.00106596633e-05 0.800223424308)
(0.000314413837674 -3.61348612087e-05 0.800419603087)
(0.000303178597104 -3.54874969825e-05 0.800355446728)
(0.000260355059493 -3.53221882424e-05 0.800341456002)
(0.000248715374056 -3.53849273422e-05 0.80027844413)
(0.000200502548323 -3.53715643406e-05 0.800261984192)
(0.000186188733044 -3.54942530081e-05 0.800225680926)
(0.000145214258079 -3.55171695793e-05 0.800215045588)
(0.000129260683511 -3.56360443853e-05 0.800195258601)
(9.55414427374e-05 -3.56676719557e-05 0.800188747687)
(7.89261742407e-05 -3.57634764704e-05 0.800178439188)
(5.00197492085e-05 -3.57769971787e-05 0.800174860326)
(3.32265699595e-05 -3.58418091378e-05 0.800170448504)
(6.61908954091e-06 -3.58210614934e-05 0.800169186174)
(0.000374547055894 -4.26762544994e-05 0.797750638155)
(0.000300921471109 -4.8187344722e-05 0.800229558714)
(0.000315175545054 -5.05435343111e-05 0.800424368691)
(0.000303734924419 -5.11775128383e-05 0.800359939593)
(0.000260644539316 -5.13224788767e-05 0.80034588224)
(0.000248871047724 -5.16674256636e-05 0.800282860222)
(0.000200550954788 -5.17350148491e-05 0.800266377977)
(0.000186170737489 -5.20161280352e-05 0.800230082321)
(0.000145170464888 -5.20776037584e-05 0.800219434524)
(0.000129197576746 -5.22964987763e-05 0.800199650846)
(9.54842429863e-05 -5.23479006795e-05 0.800193135165)
(7.88778436443e-05 -5.25112064525e-05 0.800182824736)
(4.99884263511e-05 -5.25238366639e-05 0.80017924782)
(3.32161252307e-05 -5.26330453399e-05 0.800174831075)
(6.62799661118e-06 -5.25858151993e-05 0.800173578513)
(0.000373437983414 -9.43065066509e-05 0.797747696664)
(0.000299308388237 -8.63222252319e-05 0.800230522922)
(0.00031388433915 -8.07560895599e-05 0.800427367592)
(0.000302768714385 -8.00601006887e-05 0.800363326028)
(0.000259940939285 -7.98799834653e-05 0.800349311367)
(0.000248338232177 -8.02478768938e-05 0.800286336095)
(0.000200172091267 -8.0264531425e-05 0.80026982074)
(0.000185850278957 -8.06270844083e-05 0.800233536876)
(0.00014493538863 -8.07035940049e-05 0.800222853242)
(0.000128990947827 -8.09860782938e-05 0.800203061643)
(9.53268079679e-05 -8.10693924098e-05 0.80019652043)
(7.87502260862e-05 -8.12698178776e-05 0.80018619772)
(4.98979172868e-05 -8.13061995417e-05 0.80018260615)
(3.31646095467e-05 -8.14323952712e-05 0.800178181625)
(6.61412744255e-06 -8.13885190968e-05 0.800176925465)
(0.000374732974998 -8.6103163292e-05 0.797767902767)
(0.000301519779441 -9.30449934579e-05 0.800244613386)
(0.000315261301068 -9.51228870571e-05 0.800438283669)
(0.000303724132578 -9.59036451064e-05 0.800373675219)
(0.000260358294399 -9.59257020635e-05 0.800359539136)
(0.000248509629726 -9.65304869309e-05 0.80029658704)
(0.000200193272768 -9.65321398777e-05 0.800280046533)
(0.000185736923485 -9.69998519885e-05 0.800243816005)
(0.000144813074529 -9.70687033264e-05 0.800233120037)
(0.00012883238457 -9.73967690645e-05 0.800213356453)
(9.52005940415e-05 -9.74862575278e-05 0.800206810525)
(7.86410552984e-05 -9.77052510326e-05 0.800196496483)
(4.98258865043e-05 -9.77461678725e-05 0.80019290649)
(3.31338510404e-05 -9.78813243345e-05 0.800188481115)
(6.61694260918e-06 -9.78279163724e-05 0.800187234772)
(0.000372820948417 -0.000148837714395 0.797761122497)
(0.000299004169735 -0.000137656341602 0.80024607343)
(0.000313260530686 -0.000129457683104 0.800443928152)
(0.000302310255334 -0.000128875182807 0.800380112692)
(0.000259381052235 -0.00012863535945 0.800366002683)
(0.000247783437588 -0.000129533036862 0.800303135201)
(0.000199732597711 -0.000129592163216 0.800286499468)
(0.000185321122633 -0.000130271228716 0.800250299007)
(0.000144540286962 -0.000130425198723 0.800239529441)
(0.000128574024816 -0.000130851514933 0.800219760255)
(9.50183621779e-05 -0.000131018126415 0.800213170495)
(7.84902826815e-05 -0.000131268511416 0.800202839574)
(4.97218181254e-05 -0.000131360663761 0.800199229643)
(3.30828737995e-05 -0.000131501137033 0.800194791227)
(6.60531684998e-06 -0.000131464560428 0.800193544478)
(0.000374443022395 -0.00013275358562 0.797799122193)
(0.00030192329402 -0.000142079465179 0.800272247581)