/*--------------------------------*- C++ -*----------------------------------*\
| =========                 |                                                 |
| \\      /  F ield         | OpenFOAM: The Open Source CFD Toolbox           |
|  \\    /   O peration     | Version:  2406                                  |
|   \\  /    A nd           | Website:  www.openfoam.com                      |
|    \\/     M anipulation  |                                                 |
\*---------------------------------------------------------------------------*/
FoamFile
{
    version     2.0;
    format      ascii;
    arch        "LSB;label=32;scalar=64";
    class       volScalarField;
    location    "0.01";
    object      k;
}
// * * * * * * * * * * * * * * * * * * * * * * * * * * * * * * * * * * * * * //

dimensions      [0 2 -2 0 0 0 0];

internalField   nonuniform List<scalar> 
29767
(
0.237441098971
0.237441079285
0.237441079368
0.237441079463
0.237441079783
0.237441079891
0.237441080747
0.237441080748
0.237441083048
0.237441082332
0.237441088688
0.237441082523
0.237440921616
0.237433281127
0.237409485768
0.239885351795
0.239885323097
0.239885322628
0.239885322624
0.239885322626
0.239885322635
0.239885322644
0.239885322656
0.239885322707
0.239885322679
0.239885322603
0.239885299971
0.239884263076
0.239840922367
0.237433281248
0.239956451009
0.239956429492
0.239956428717
0.2399564287
0.239956428716
0.239956428731
0.239956428771
0.239956428794
0.239956428894
0.239956428836
0.239956425388
0.239956305109
0.239953361222
0.239884263419
0.237440921822
0.239959662936
0.239959642982
0.239959642201
0.239959642181
0.239959642189
0.2399596422
0.239959642221
0.239959642242
0.239959642292
0.239959642219
0.239959637919
0.239959500291
0.239956305207
0.239885300432
0.23744108271
0.239959801742
0.23995978191
0.239959781131
0.239959781111
0.239959781121
0.239959781133
0.239959781156
0.23995978118
0.239959781236
0.239959781161
0.239959776819
0.239959637926
0.239956425495
0.239885323069
0.23744108889
0.239959806149
0.239959786322
0.239959785542
0.239959785522
0.239959785528
0.239959785539
0.239959785556
0.239959785577
0.239959785619
0.239959785544
0.239959781161
0.239959642227
0.239956428943
0.239885323145
0.237441082535
0.239959806221
0.239959786394
0.239959785614
0.239959785594
0.239959785601
0.239959785612
0.239959785629
0.239959785651
0.239959785692
0.239959785619
0.239959781236
0.2399596423
0.239956429002
0.239885323173
0.237441083259
0.23995980619
0.239959786363
0.239959785583
0.239959785562
0.239959785568
0.239959785579
0.239959785593
0.239959785615
0.239959785651
0.239959785577
0.23995978118
0.239959642249
0.239956428902
0.239885323121
0.237441080935
0.239959806169
0.239959786342
0.239959785561
0.239959785541
0.239959785547
0.239959785558
0.239959785572
0.239959785594
0.239959785629
0.239959785556
0.239959781156
0.239959642228
0.239956428879
0.23988532311
0.237441080941
0.239959806156
0.239959786329
0.239959785549
0.239959785528
0.239959785533
0.239959785544
0.239959785558
0.239959785579
0.239959785612
0.239959785539
0.239959781133
0.239959642208
0.239956428838
0.239885323101
0.237441080108
0.239959806146
0.239959786319
0.239959785538
0.239959785517
0.239959785523
0.239959785533
0.239959785547
0.239959785568
0.2399597856
0.239959785529
0.239959781121
0.239959642197
0.239956428824
0.239885323092
0.237441079975
0.239959806141
0.239959786314
0.239959785533
0.239959785512
0.239959785517
0.239959785528
0.239959785541
0.239959785562
0.239959785594
0.239959785522
0.239959781112
0.239959642188
0.239956428807
0.23988532309
0.237441079654
0.239959806162
0.239959786335
0.239959785554
0.239959785533
0.239959785538
0.239959785549
0.239959785562
0.239959785583
0.239959785614
0.239959785542
0.239959781131
0.239959642209
0.239956428824
0.239885323093
0.237441079569
0.239959806948
0.239959787118
0.239959786337
0.239959786316
0.239959786321
0.239959786332
0.239959786344
0.239959786366
0.239959786397
0.239959786325
0.239959781913
0.239959642992
0.239956429602
0.239885323563
0.237441079483
0.239959826891
0.239959807006
0.239959806222
0.239959806201
0.239959806206
0.239959806216
0.239959806229
0.23995980625
0.23995980628
0.239959806209
0.239959801802
0.239959663003
0.239956451172
0.23988535227
0.237441099155
0.237417993109
0.237417973156
0.237417975176
0.23741797325
0.237417973708
0.237417975954
0.237417975195
0.237417973863
0.2374179799
0.237417976098
0.237417986385
0.237417976712
0.237417814391
0.237410164695
0.237387157843
0.239879333009
0.239879302149
0.239879301675
0.239879301641
0.239879301639
0.239879301679
0.239879301654
0.23987930164
0.23987930171
0.239879301667
0.239879301357
0.23987927735
0.239878166657
0.239832413555
0.23741016481
0.239954225262
0.239954201628
0.239954200769
0.239954200743
0.239954200742
0.239954200743
0.239954200745
0.239954200747
0.239954200749
0.23995420066
0.239954196603
0.239954067339
0.239950928897
0.239878167148
0.237417813359
0.239957656257
0.239957634274
0.239957633409
0.239957633382
0.239957633382
0.239957633383
0.239957633386
0.239957633388
0.239957633389
0.239957633283
0.239957628375
0.239957479944
0.239954067476
0.239879278033
0.237417980149
0.239957806045
0.239957784194
0.239957783329
0.239957783302
0.239957783302
0.239957783303
0.239957783306
0.239957783307
0.239957783308
0.239957783198
0.239957778234
0.239957628386
0.239954196752
0.239879301994
0.237417986587
0.239957811006
0.239957789161
0.239957788297
0.239957788269
0.23995778827
0.239957788271
0.239957788273
0.239957788275
0.239957788275
0.239957788165
0.239957783198
0.239957633295
0.239954200811
0.239879302298
0.237417976084
0.239957811117
0.239957789272
0.239957788408
0.23995778838
0.23995778838
0.239957788382
0.239957788384
0.239957788386
0.239957788386
0.239957788275
0.239957783308
0.239957633401
0.239954200899
0.239879302323
0.237417978233
0.239957811116
0.239957789271
0.239957788407
0.239957788379
0.239957788379
0.239957788381
0.239957788383
0.239957788386
0.239957788386
0.239957788275
0.239957783308
0.2399576334
0.239954200899
0.239879302327
0.237417977033
0.239957811115
0.239957789269
0.239957788405
0.239957788378
0.239957788378
0.239957788379
0.239957788381
0.239957788383
0.239957788384
0.239957788273
0.239957783306
0.239957633397
0.239954200895
0.239879302318
0.237417977057
0.239957811112
0.239957789267
0.239957788403
0.239957788375
0.239957788375
0.239957788376
0.239957788379
0.23995778838
0.239957788381
0.239957788271
0.239957783304
0.239957633395
0.239954200893
0.239879302269
0.237417972704
0.239957811111
0.239957789266
0.239957788402
0.239957788374
0.239957788374
0.239957788375
0.239957788378
0.239957788379
0.239957788379
0.239957788269
0.239957783302
0.239957633394
0.239954200893
0.239879302306
0.237417975688
0.239957811111
0.239957789266
0.239957788402
0.239957788374
0.239957788374
0.239957788375
0.239957788378
0.239957788379
0.239957788379
0.239957788269
0.239957783302
0.239957633393
0.239954200894
0.239879302306
0.23741797523
0.239957811139
0.239957789293
0.239957788429
0.239957788402
0.239957788402
0.239957788403
0.239957788405
0.239957788407
0.239957788407
0.239957788297
0.23995778333
0.239957633421
0.23995420092
0.239879302313
0.237417975091
0.239957812009
0.23995779016
0.239957789295
0.239957789268
0.239957789268
0.239957789269
0.239957789271
0.239957789273
0.239957789274
0.239957789163
0.239957784196
0.239957634288
0.23995420178
0.239879302796
0.237417973352
0.239957833961
0.239957812052
0.239957811184
0.239957811156
0.239957811156
0.239957811157
0.239957811159
0.239957811161
0.239957811162
0.239957811051
0.23995780609
0.239957656313
0.239954225453
0.239879333638
0.23741799225
0.237417899537
0.237417879722
0.237417883249
0.237417879924
0.237417880484
0.237417884405
0.237417882252
0.23741788181
0.23741788817
0.237417884322
0.237417892903
0.23741788492
0.237417712204
0.237410070542
0.237387041039
0.239879285037
0.239879254168
0.239879253716
0.239879253647
0.239879253651
0.239879253721
0.239879253668
0.239879253673
0.239879253745
0.239879253699
0.23987925338
0.239879229328
0.239878118195
0.239832358045
0.237410070659
0.239954190506
0.239954166825
0.239954165964
0.239954165936
0.239954165935
0.239954165937
0.239954165938
0.23995416594
0.239954165941
0.239954165843
0.239954161788
0.239954032341
0.239950892616
0.23987811865
0.237417710841
0.239957623153
0.239957601121
0.239957600254
0.239957600226
0.239957600226
0.239957600227
0.239957600229
0.239957600231
0.239957600231
0.239957600111
0.239957595207
0.239957446526
0.239954032476
0.239879229999
0.237417889469
0.239957773181
0.23995775128
0.239957750414
0.239957750386
0.239957750386
0.239957750387
0.239957750388
0.23995775039
0.239957750388
0.239957750268
0.239957745304
0.239957595218
0.239954161933
0.239879253983
0.237417893105
0.239957778143
0.239957756248
0.239957755381
0.239957755353
0.239957755352
0.239957755354
0.239957755357
0.239957755359
0.239957755357
0.239957755236
0.239957750269
0.239957600123
0.23995416599
0.239879254289
0.237417884224
0.239957778262
0.239957756367
0.239957755499
0.23995775547
0.23995775547
0.239957755472
0.239957755475
0.239957755479
0.239957755478
0.239957755357
0.239957750389
0.239957600242
0.239954166087
0.239879254303
0.23741788512
0.239957778259
0.239957756365
0.239957755498
0.23995775547
0.23995775547
0.239957755472
0.239957755474
0.239957755478
0.239957755478
0.239957755359
0.23995775039
0.239957600242
0.239954166088
0.239879254326
0.237417885357
0.239957778257
0.239957756361
0.239957755495
0.239957755467
0.239957755466
0.239957755468
0.23995775547
0.239957755474
0.239957755475
0.239957755357
0.239957750389
0.239957600241
0.239954166086
0.239879254326
0.237417885467
0.239957778253
0.239957756359
0.239957755493
0.239957755466
0.239957755465
0.239957755467
0.239957755468
0.23995775547
0.239957755471
0.239957755354
0.239957750387
0.239957600239
0.239954166084
0.239879254255
0.237417880075
0.239957778251
0.239957756358
0.239957755492
0.239957755464
0.239957755464
0.239957755465
0.239957755467
0.239957755468
0.239957755469
0.239957755352
0.239957750386
0.239957600238
0.239954166085
0.239879254314
0.237417883982
0.239957778251
0.239957756359
0.239957755492
0.239957755465
0.239957755464
0.239957755466
0.239957755467
0.239957755469
0.23995775547
0.239957755353
0.239957750387
0.239957600238
0.239954166085
0.239879254309
0.23741788334
0.239957778278
0.239957756386
0.23995775552
0.239957755492
0.239957755492
0.239957755493
0.239957755495
0.239957755496
0.239957755497
0.23995775538
0.239957750414
0.239957600265
0.239954166111
0.239879254315
0.237417883107
0.239957779151
0.239957757255
0.239957756389
0.23995775636
0.23995775636
0.239957756361
0.239957756363
0.239957756365
0.239957756367
0.239957756248
0.239957751282
0.239957601135
0.239954166973
0.239879254772
0.237417879848
0.239957801157
0.239957779197
0.239957778325
0.239957778297
0.239957778298
0.239957778299
0.239957778301
0.239957778305
0.239957778308
0.239957778189
0.239957773228
0.23995762321
0.239954190696
0.239879285652
0.237417899304
0.237417933665
0.237417913962
0.237417920664
0.237417914168
0.237417914763
0.237417921967
0.237417916608
0.23741791703
0.237417925258
0.237417915365
0.237417930778
0.237417916437
0.237417743969
0.237410102629
0.237387078577
0.23987928733
0.239879258368
0.239879257977
0.23987925586
0.239879257816
0.239879257387
0.23987925596
0.239879257873
0.239879257939
0.239879257852
0.239879257606
0.239879231987
0.239878122198
0.239832363286
0.237410102736
0.239954190918
0.23995416727
0.239954166412
0.239954166345
0.239954166382
0.239954166382
0.239954166351
0.239954166388
0.239954166389
0.23995416629
0.23995416224
0.239954032722
0.239950893201
0.239878122284
0.237417742453
0.23995762342
0.239957601389
0.239957600521
0.239957600492
0.239957600492
0.239957600493
0.23995760049
0.239957600491
0.239957600492
0.239957600372
0.239957595473
0.239957446789
0.239954032941
0.239879234307
0.237417927567
0.239957773452
0.23995775155
0.239957750683
0.239957750655
0.239957750654
0.239957750655
0.239957750655
0.239957750657
0.23995775065
0.239957750532
0.239957745572
0.239957595482
0.239954162394
0.23987925827
0.237417930985
0.23995777841
0.239957756514
0.239957755645
0.239957755617
0.239957755616
0.239957755618
0.23995775562
0.239957755622
0.239957755618
0.239957755493
0.239957750533
0.239957600384
0.23995416644
0.239879258473
0.237417915086
0.239957778529
0.23995775663
0.239957755761
0.239957755732
0.239957755731
0.239957755732
0.239957755736
0.23995775574
0.239957755741
0.239957755618
0.239957750652
0.239957600504
0.239954166521
0.239879257083
0.237417919308
0.239957778525
0.239957756629
0.239957755761
0.239957755732
0.239957755732
0.239957755734
0.239957755735
0.239957755741
0.23995775574
0.239957755622
0.239957750657
0.239957600503
0.239954166527
0.239879257357
0.237417921156
0.239957778521
0.239957756622
0.239957755755
0.239957755728
0.239957755726
0.239957755727
0.239957755728
0.239957755734
0.239957755736
0.23995775562
0.239957750656
0.239957600503
0.239954166536
0.239879258601
0.237417922614
0.239957778516
0.239957756621
0.239957755755
0.239957755727
0.239957755726
0.239957755728
0.239957755727
0.23995775573
0.239957755732
0.239957755618
0.239957750656
0.239957600505
0.239954166535
0.239879258398
0.237417910912
0.239957778514
0.23995775662
0.239957755754
0.239957755726
0.239957755725
0.239957755726
0.239957755726
0.239957755727
0.23995775573
0.239957755616
0.239957750654
0.239957600504
0.239954166538
0.239879258618
0.237417921744
0.239957778515
0.239957756622
0.23995775576
0.239957755728
0.239957755726
0.239957755727
0.239957755727
0.23995775573
0.239957755731
0.239957755617
0.239957750656
0.239957600505
0.239954166537
0.239879258547
0.237417920485
0.239957778542
0.239957756649
0.239957755783
0.23995775576
0.239957755759
0.239957755756
0.239957755755
0.239957755758
0.239957755759
0.239957755645
0.239957750683
0.239957600533
0.239954166563
0.239879258599
0.237417920222
0.239957779415
0.23995775752
0.239957756652
0.239957756624
0.239957756627
0.239957756628
0.239957756624
0.239957756627
0.239957756629
0.239957756514
0.239957751552
0.239957601402
0.239954167403
0.239879257256
0.237417913977
0.239957801421
0.239957779458
0.239957778585
0.239957778557
0.239957778557
0.239957778559
0.239957778559
0.239957778567
0.239957778571
0.239957778453
0.239957773495
0.239957623474
0.239954191117
0.239879288278
0.237417929144
0.237417923934
0.237417904146
0.237417896151
0.237417904307
0.237417904772
0.237417900905
0.237417906258
0.237417895545
0.237417896088
0.237417881323
0.237417889379
0.23741788059
0.237417701604
0.237410061929
0.23738702455
0.239879287392
0.2398792571
0.239879256833
0.239879255928
0.239879257135
0.239879257371
0.239879256033
0.239879257569
0.23987925794
0.239879257401
0.239879256945
0.239879231994
0.239878121193
0.239832363304
0.237410062072
0.239954190415
0.239954166503
0.239954165665
0.239954166297
0.239954165848
0.23995416635
0.239954166314
0.239954165644
0.239954165651
0.239954165722
0.239954161971
0.239954032711
0.239950893164
0.239878122262
0.237417700427
0.239957622718
0.239957600677
0.239957599809
0.239957599806
0.239957599796
0.23995759981
0.239957599811
0.239957599782
0.23995759978
0.239957599683
0.239957594969
0.239957446527
0.239954032434
0.239879233807
0.237417893664
0.23995777276
0.239957750854
0.239957749987
0.23995774996
0.239957749959
0.239957749961
0.239957749962
0.239957749963
0.23995774996
0.239957749834
0.239957744907
0.239957595008
0.239954161906
0.239879258202
0.237417889575
0.239957777714
0.239957755815
0.239957754948
0.23995775492
0.239957754919
0.239957754924
0.239957754921
0.239957754922
0.239957754921
0.239957754795
0.239957749835
0.239957599697
0.239954165903
0.239879258136
0.237417881995
0.23995777784
0.23995775594
0.239957755072
0.239957755043
0.239957755045
0.239957755051
0.239957755047
0.239957755053
0.239957755048
0.239957754921
0.239957749962
0.239957599792
0.239954165851
0.239879257126
0.23741790809
0.239957777841
0.23995775594
0.239957755073
0.239957755045
0.239957755044
0.239957755045
0.239957755045
0.23995775505
0.239957755053
0.239957754922
0.239957749963
0.239957599794
0.239954165771
0.239879257376
0.237417899821
0.239957777837
0.23995775594
0.239957755075
0.239957755045
0.239957755045
0.239957755046
0.239957755044
0.239957755045
0.239957755046
0.239957754921
0.239957749962
0.2399575998
0.239954165767
0.239879257577
0.237417873503
0.239957777836
0.239957755942
0.239957755077
0.239957755048
0.239957755047
0.239957755045
0.239957755045
0.239957755044
0.239957755044
0.239957754922
0.239957749961
0.239957599805
0.239954165922
0.239879256791
0.237417877731
0.239957777835
0.239957755941
0.239957755087
0.239957755049
0.239957755046
0.239957755046
0.239957755044
0.239957755044
0.239957755041
0.239957754918
0.239957749958
0.239957599791
0.239954165778
0.239879258146
0.237417899548
0.239957777837
0.239957755954
0.239957755276
0.239957755078
0.239957755063
0.239957755049
0.239957755047
0.239957755045
0.239957755043
0.239957754919
0.23995774996
0.239957599792
0.239954165784
0.239879258542
0.237417885708
0.239957777865
0.239957755968
0.239957755135
0.239957755291
0.239957755278
0.239957755104
0.239957755077
0.239957755072
0.23995775507
0.239957754948
0.239957749987
0.239957599821
0.239954165812
0.239879258116
0.237417889596
0.239957778737
0.23995775684
0.239957755973
0.239957755977
0.239957756146
0.23995775613
0.239957755957
0.239957755942
0.23995775594
0.23995775582
0.239957750857
0.239957600715
0.239954167353
0.239879257314
0.23741790412
0.239957800737
0.239957778775
0.239957777903
0.239957777878
0.239957777889
0.239957777889
0.239957777876
0.239957777878
0.239957777879
0.239957777754
0.239957772801
0.239957622795
0.239954191073
0.239879288299
0.237417898211
0.237417930936
0.237417910881
0.237417896904
0.237417911045
0.237417911462
0.237417901052
0.237417912887
0.237417895765
0.237417896306
0.237417869953
0.2374178896
0.237417868538
0.237417689494
0.237410051073
0.237387021396
0.23987928972
0.239879256781
0.239879256902
0.23987925832
0.239879257239
0.239879258303
0.239879258374
0.239879257609
0.239879258322
0.239879257444
0.239879257012
0.239879233702
0.23987812119
0.239832365705
0.237410051227
0.239954190427
0.239954166475
0.239954165642
0.239954166332
0.239954165734
0.239954166356
0.239954166345
0.239954165623
0.239954165629
0.23995416554
0.239954161959
0.239954032782
0.239950893172
0.23987812289
0.237417689616
0.239957622683
0.239957600649
0.239957599781
0.23995759978
0.239957599768
0.23995759978
0.239957599781
0.239957599758
0.239957599757
0.23995759965
0.23995759476
0.239957446513
0.239954032343
0.239879233857
0.237417893894
0.239957772735
0.239957750834
0.239957749967
0.239957749941
0.239957749939
0.23995774994
0.239957749939
0.239957749937
0.239957749934
0.239957749811
0.239957744876
0.239957594912
0.239954161857
0.239879258499
0.237417889799
0.239957777691
0.239957755798
0.239957754931
0.239957754904
0.239957754903
0.239957754902
0.239957754902
0.239957754901
0.239957754895
0.239957754766
0.239957749811
0.239957599669
0.239954165791
0.239879258167
0.237417870815
0.239957777821
0.239957755927
0.239957755061
0.239957755033
0.239957755032
0.239957755033
0.239957755032
0.239957755033
0.239957755028
0.239957754895
0.239957749935
0.23995759977
0.239954165855
0.239879259028
0.237417914627
0.239957777823
0.239957755929
0.239957755063
0.239957755034
0.239957755034
0.239957755035
0.239957755035
0.239957755035
0.239957755031
0.2399577549
0.239957749938
0.23995759977
0.239954165771
0.23987925894
0.237417899759
0.239957777823
0.239957755928
0.239957755061
0.239957755034
0.239957755032
0.239957755033
0.239957755034
0.239957755035
0.239957755032
0.239957754903
0.239957749941
0.239957599768
0.239954165728
0.239879257646
0.237417873004
0.239957777823
0.239957755929
0.239957755063
0.239957755035
0.239957755033
0.239957755033
0.239957755034
0.239957755034
0.239957755033
0.239957754904
0.23995774994
0.239957599775
0.239954165763
0.239879256522
0.237417867435
0.239957777821
0.239957755931
0.239957755075
0.239957755036
0.239957755033
0.239957755033
0.239957755033
0.239957755032
0.239957755031
0.239957754903
0.23995774994
0.239957599764
0.239954165735
0.239879258199
0.2374178997
0.239957777822
0.239957755944
0.239957755147
0.239957755063
0.239957755048
0.239957755036
0.239957755034
0.239957755035
0.239957755033
0.239957754904
0.239957749942
0.239957599767
0.239954165765
0.239879258908
0.237417885994
0.239957777848
0.239957755959
0.239957755123
0.239957755187
0.239957755109
0.239957755086
0.239957755064
0.239957755062
0.23995775506
0.239957754931
0.239957749969
0.239957599793
0.239954165788
0.239879258172
0.237417889885
0.239957778719
0.239957756827
0.239957755963
0.239957755965
0.239957755989
0.239957755966
0.239957755941
0.239957755931
0.239957755929
0.239957755801
0.239957750838
0.239957600688
0.239954167385
0.239879259513
0.237417910691
0.239957800719
0.239957778767
0.239957777894
0.239957777871
0.23995777788
0.23995777788
0.239957777869
0.239957777869
0.239957777868
0.239957777739
0.239957772782
0.239957622765
0.239954191103
0.239879290111
0.237417887768
0.237417914337
0.237417896539
0.237417895258
0.23741789452
0.237417893948
0.237417910781
0.23741787396
0.237417906034
0.237417912142
0.2374178783
0.237417913985
0.237417877768
0.237417698133
0.237410059854
0.237387025352
0.239879289069
0.239879257231
0.239879258099
0.239879257614
0.239879256653
0.239879256406
0.239879257997
0.239879258246
0.239879256442
0.239879258148
0.239879257916
0.239879232474
0.239878121739
0.239832363666
0.237410060004
0.239954190831
0.239954167169
0.239954166189
0.239954165633
0.239954165721
0.2399541656
0.239954165651
0.239954166329
0.239954166136
0.239954165584
0.239954161483
0.239954032002
0.239950892354
0.239878121691
0.23741769831
0.23995762318
0.239957601151
0.239957600277
0.239957600278
0.239957600259
0.239957600233
0.239957600232
0.239957600399
0.239957600395
0.239957600134
0.239957594825
0.239957446043
0.23995403212
0.239879234606
0.237417911741
0.239957773401
0.239957751496
0.239957750629
0.239957750607
0.239957750602
0.239957750596
0.239957750536
0.239957750504
0.239957750448
0.239957750436
0.239957745352
0.239957594761
0.239954161588
0.239879256654
0.237417914227
0.239957778371
0.23995775648
0.239957755611
0.239957755584
0.239957755582
0.239957755577
0.239957755576
0.239957755562
0.239957755456
0.239957755279
0.239957750438
0.239957600161
0.239954165648
0.239879258756
0.2374178803
0.239957778504
0.239957756616
0.239957755749
0.239957755716
0.239957755707
0.239957755703
0.239957755713
0.239957755708
0.23995775568
0.239957755455
0.239957750449
0.23995760042
0.239954166449
0.239879256764
0.237417871425
0.239957778502
0.239957756612
0.239957755746
0.239957755716
0.239957755715
0.239957755721
0.239957755719
0.239957755709
0.239957755618
0.239957755551
0.239957750508
0.239957600414
0.23995416647
0.239879257022
0.237417908329
0.239957778506
0.239957756605
0.239957755734
0.239957755711
0.239957755708
0.239957755707
0.239957755713
0.239957755718
0.239957755707
0.239957755581
0.239957750596
0.239957600287
0.23995416642
0.239879258466
0.237417906628
0.239957778502
0.239957756602
0.239957755732
0.239957755706
0.239957755705
0.239957755708
0.239957755686
0.239957755713
0.239957755716
0.239957755577
0.239957750603
0.239957600277
0.239954165976
0.239879256916
0.237417875399
0.239957778494
0.239957756607
0.239957755716
0.239957755704
0.239957755704
0.239957755709
0.239957755708
0.239957755708
0.239957755715
0.239957755583
0.239957750612
0.239957600331
0.239954166425
0.239879258953
0.237417910088
0.239957778492
0.239957756588
0.239957755072
0.239957755668
0.239957755683
0.239957755705
0.23995775571
0.239957755716
0.239957755716
0.239957755585
0.239957750609
0.239957600335
0.239954166448
0.239879257056
0.237417909471
0.239957778523
0.239957756636
0.239957755727
0.239957755076
0.239957755027
0.239957755695
0.239957755733
0.239957755743
0.239957755743
0.239957755613
0.239957750628
0.239957600312
0.239954166352
0.239879258935
0.237417909403
0.239957779382
0.239957757504
0.239957756638
0.239957756567
0.239957755908
0.239957756018
0.23995775658
0.239957756609
0.239957756612
0.239957756478
0.239957751475
0.239957601144
0.239954166654
0.239879257348
0.237417896694
0.239957801184
0.239957779431
0.239957778572
0.239957778543
0.239957778518
0.239957778522
0.239957778545
0.239957778545
0.239957778548
0.239957778416
0.239957773439
0.239957623186
0.239954190398
0.239879289627
0.237417896429
0.237417914477
0.237417896659
0.237417896576
0.237417894651
0.237417894069
0.237417870522
0.237417874029
0.237417871049
0.237417871492
0.237417886752
0.2374178808
0.237417900191
0.237417719423
0.237410081409
0.237387034453
0.23987928908
0.239879257115
0.239879256268
0.239879257623
0.239879256551
0.239879256093
0.239879258008
0.239879258045
0.239879256123
0.239879258065
0.239879256389
0.239879232039
0.239878120669
0.239832363242
0.237410081559
0.239954190218
0.239954167144
0.239954165811
0.239954165608
0.239954165779
0.239954165586
0.23995416562
0.239954166122
0.23995416611
0.239954165679
0.239954161436
0.239954031977
0.239950892321
0.239878121727
0.237417719737
0.239957622723
0.239957600689
0.2399575999
0.239957599996
0.239957599924
0.239957600209
0.239957599797
0.239957599777
0.239957599789
0.239957600037
0.239957594927
0.239957446032
0.239954032148
0.239879233921
0.237417870047
0.239957772843
0.239957750856
0.239957749985
0.23995774996
0.239957749973
0.239957750014
0.239957749952
0.239957749952
0.239957749967
0.239957749841
0.239957745014
0.23995759481
0.239954161603
0.23987925632
0.237417873084
0.239957777709
0.239957755824
0.239957754953
0.239957754915
0.239957754929
0.239957755125
0.239957754926
0.239957754927
0.239957754908
0.239957754799
0.239957749832
0.239957599684
0.239954165694
0.239879257593
0.237417903113
0.239957777846
0.23995775615
0.239957755258
0.239957755063
0.239957755052
0.239957755097
0.23995775506
0.239957755223
0.239957755055
0.239957754914
0.239957749974
0.239957599807
0.239954166417
0.239879256732
0.237417871155
0.239957777834
0.239957755953
0.239957755085
0.239957755046
0.239957755058
0.239957755264
0.239957755065
0.23995775506
0.239957755057
0.239957754918
0.239957749948
0.239957599778
0.239954165786
0.239879256761
0.237417872846
0.239957777839
0.239957755944
0.23995775508
0.239957755047
0.239957755055
0.239957755251
0.239957755065
0.239957755046
0.239957755045
0.239957754915
0.239957749954
0.239957599816
0.239954166383
0.239879256897
0.237417873211
0.23995777784
0.239957755954
0.239957755141
0.239957755053
0.239957755043
0.239957755059
0.239957755061
0.239957755044
0.239957755043
0.239957754915
0.239957749961
0.239957599779
0.239954165972
0.239879257159
0.23741788175
0.239957777836
0.239957755941
0.239957755078
0.239957755059
0.239957755057
0.239957755046
0.239957755043
0.239957755039
0.239957755041
0.239957754914
0.239957749948
0.23995759978
0.239954166219
0.23987925707
0.237417871786
0.239957777855
0.239957755945
0.239957755067
0.239957755449
0.239957755262
0.239957755067
0.239957755049
0.239957755042
0.239957755042
0.239957754936
0.239957749952
0.239957599781
0.239954166245
0.239879256722
0.237417870241
0.239957778055
0.23995775598
0.23995775523
0.239957755105
0.239957755121
0.239957755518
0.239957755084
0.239957755072
0.23995775509
0.239957755543
0.239957750002
0.239957599804
0.239954165801
0.239879258339
0.237417869978
0.239957777102
0.239957756996
0.239957756
0.239957756266
0.239957755997
0.239957756096
0.239957756139
0.239957755945
0.239957755951
0.239957756033
0.239957750866
0.239957600894
0.239954166616
0.239879257338
0.237417896807
0.239957772208
0.23995777725
0.23995777831
0.239957777912
0.239957778272
0.239957778303
0.239957777892
0.239957777877
0.239957777871
0.239957777756
0.239957772788
0.239957622777
0.239954190379
0.239879289654
0.237417905184
0.237417930507
0.237417910443
0.237417880637
0.237417910332
0.237417910527
0.237417868906
0.237417911353
0.237417869314
0.237417869512
0.237417888947
0.237417870289
0.237417867877
0.23741768718
0.237410049128
0.237387010354
0.239879289951
0.239879258283
0.239879256174
0.2398792585
0.239879257592
0.239879258384
0.239879258676
0.23987925805
0.239879258334
0.239879258072
0.239879256372
0.239879232369
0.239878120547
0.239832363704
0.237410049088
0.239954190207
0.239954167186
0.239954165804
0.239954166328
0.239954166294
0.239954166359
0.239954166341
0.239954166125
0.239954166181
0.239954166177
0.239954162186
0.23995403274
0.239950893167
0.239878122914
0.237417687454
0.23995762269
0.239957600673
0.239957599894
0.239957599996
0.239957599847
0.239957600236
0.239957599787
0.239957599763
0.239957599778
0.239957599918
0.239957595304
0.23995744672
0.239954032874
0.239879233933
0.237417867347
0.239957772715
0.239957750835
0.239957749974
0.23995774995
0.239957749954
0.239957749977
0.239957749917
0.23995774992
0.239957749958
0.239957749824
0.23995774496
0.239957595381
0.239954162367
0.239879258606
0.237417870472
0.239957777692
0.239957755811
0.239957754942
0.239957754904
0.239957754916
0.239957755068
0.239957754913
0.239957754906
0.239957754878
0.239957754789
0.239957749814
0.239957599686
0.239954166364
0.239879257556
0.237417885112
0.239957777833
0.239957756043
0.239957755099
0.239957755046
0.239957755021
0.239957755074
0.239957755046
0.239957755074
0.239957755039
0.239957754884
0.239957749966
0.239957599794
0.239954166485
0.239879259023
0.237417872797
0.239957777823
0.239957755942
0.239957755073
0.239957755034
0.239957755042
0.239957755177
0.239957755051
0.239957755045
0.239957755039
0.239957754901
0.239957749935
0.239957599767
0.239954165777
0.239879256904
0.237417871061
0.239957777827
0.239957755931
0.239957755059
0.239957755034
0.239957755041
0.239957755165
0.239957755054
0.239957755035
0.239957755031
0.2399577549
0.239957749937
0.239957599792
0.239954166423
0.239879256827
0.237417871505
0.239957777824
0.239957755935
0.239957755073
0.239957755035
0.23995775503
0.239957755047
0.239957755033
0.239957755028
0.239957755031
0.239957754901
0.239957749945
0.239957599779
0.239954166327
0.239879257667
0.237417884804
0.239957777815
0.239957755931
0.239957755072