/*--------------------------------*- C++ -*----------------------------------*\
| =========                 |                                                 |
| \\      /  F ield         | OpenFOAM: The Open Source CFD Toolbox           |
|  \\    /   O peration     | Version:  2406                                  |
|   \\  /    A nd           | Website:  www.openfoam.com                      |
|    \\/     M anipulation  |                                                 |
\*---------------------------------------------------------------------------*/
FoamFile
{
    version     2.0;
    format      ascii;
    arch        "LSB;label=32;scalar=64";
    class       volScalarField;
    location    "0.01";
    object      nut;
}
// * * * * * * * * * * * * * * * * * * * * * * * * * * * * * * * * * * * * * //

dimensions      [0 2 -1 0 0 0 0];

internalField   nonuniform List<scalar> 
29767
(
0.00182275324173
0.00182275316608
0.0018227531664
0.00182275316677
0.001822753168
0.00182275316841
0.0018227531717
0.0018227531717
0.00182275318054
0.00182275317779
0.00182275320221
0.00182275317852
0.00182275256023
0.00182272320104
0.00163061413408
0.045207095342
0.0452066334701
0.045206620539
0.0452066214749
0.0452066194741
0.0452066221695
0.0452066208159
0.0452066213644
0.0452066396444
0.0452065988781
0.0452066020982
0.0451973478417
0.0447934795607
0.0325369376724
0.0018227232015
0.123606781019
0.123606074884
0.123606042903
0.123606041877
0.123606041423
0.12360604185
0.123606041495
0.123606041304
0.123606037527
0.123605722573
0.123593657679
0.123217316215
0.114894849867
0.0447934795421
0.00182275256102
0.134305082356
0.134305003023
0.134304999211
0.134304999064
0.134304999045
0.134304999056
0.134304999055
0.13430499885
0.134304988988
0.134304531598
0.134287280766
0.133776209471
0.123217320481
0.0451973479713
0.00182275317924
0.134825391431
0.13482537868
0.134825378165
0.134825378147
0.134825378145
0.134825378145
0.134825378141
0.134825377947
0.134825367687
0.134824899785
0.134807286719
0.134287280836
0.123593662294
0.0452066022453
0.00182275320299
0.134843014967
0.134843005703
0.134843005367
0.134843005357
0.134843005356
0.134843005356
0.134843005352
0.134843005158
0.134842994883
0.134842526549
0.134824899771
0.134304531658
0.123605727217
0.0452065990252
0.00182275317857
0.13484348318
0.134843474042
0.134843473713
0.134843473703
0.134843473703
0.134843473702
0.134843473698
0.134843473505
0.134843463229
0.134842994882
0.134825367672
0.134304989047
0.123606042178
0.0452066397926
0.00182275318135
0.134843493451
0.134843484317
0.134843483988
0.134843483978
0.134843483977
0.134843483977
0.134843483973
0.13484348378
0.134843473504
0.134843005157
0.134825377931
0.134304998895
0.123606045808
0.0452066213731
0.00182275317242
0.134843493645
0.134843484511
0.134843484182
0.134843484172
0.134843484171
0.134843484171
0.134843484167
0.134843483973
0.134843473698
0.134843005351
0.134825378126
0.134304999115
0.123606046148
0.0452066209767
0.00182275317244
0.134843493649
0.134843484514
0.134843484186
0.134843484176
0.134843484175
0.134843484175
0.134843484171
0.134843483977
0.134843473702
0.134843005355
0.13482537813
0.134304999117
0.123606046514
0.0452066223437
0.00182275316924
0.134843493649
0.134843484515
0.134843484186
0.134843484176
0.134843484175
0.134843484175
0.134843484171
0.134843483977
0.134843473702
0.134843005355
0.13482537813
0.134304999107
0.123606046096
0.0452066196619
0.00182275316873
0.13484349365
0.134843484515
0.134843484187
0.134843484177
0.134843484176
0.134843484176
0.134843484172
0.134843483978
0.134843473703
0.134843005356
0.134825378132
0.134304999123
0.123606046531
0.0452066216612
0.0018227531675
0.13484349366
0.134843484525
0.134843484196
0.134843484187
0.134843484186
0.134843484186
0.134843484182
0.134843483988
0.134843473713
0.134843005366
0.134825378149
0.134304999255
0.123606047415
0.0452066205965
0.00182275316717
0.134843493991
0.134843484855
0.134843484526
0.134843484517
0.134843484516
0.134843484516
0.134843484512
0.134843484318
0.134843474043
0.134843005703
0.134825378666
0.134305003088
0.123606079585
0.0452066336971
0.00182275316684
0.134843503167
0.13484349402
0.13484349369
0.13484349368
0.134843493679
0.134843493679
0.134843493675
0.134843493481
0.13484348321
0.134843014996
0.13482539145
0.134305082532
0.123606786504
0.0452070959226
0.00182275324244
0.00182266445416
0.00182266437749
0.00182266438525
0.00182266437785
0.00182266437961
0.00182266438824
0.00182266438532
0.00182266438021
0.00182266440341
0.0018226643888
0.00182266442833
0.00182266439116
0.0018226637674
0.00182263437139
0.00163261779718
0.0435809462278
0.0435804574534
0.043580444047
0.0435804448755
0.0435804432024
0.0435804454007
0.0435804430307
0.0435804453671
0.0435804467029
0.0435804406746
0.043580302569
0.043571254264
0.0431660783992
0.0311835946238
0.00182263437183
0.12286009566
0.122859314431
0.122859279069
0.122859278176
0.122859277752
0.12285927837
0.122859277808
0.1228592779
0.122859271245
0.122858939527
0.122845956135
0.12244430185
0.113685749741
0.0431660784791
0.00182266376343
0.134260334523
0.134260245977
0.134260241711
0.134260241575
0.134260241555
0.13426024159
0.134260241568
0.13426024135
0.134260230372
0.134259728438
0.13424088254
0.133687175094
0.122444310851
0.0435712539206
0.00182266440436
0.134824639103
0.134824625028
0.134824624458
0.13482462444
0.134824624439
0.134824624441
0.134824624436
0.134824624222
0.134824612897
0.134824098454
0.134804838423
0.134240883521
0.122845966592
0.0435803027302
0.0018226644291
0.134843914094
0.134843903928
0.13484390356
0.134843903549
0.134843903548
0.134843903549
0.134843903544
0.134843903331
0.13484389199
0.134843377006
0.134824098504
0.134259729426
0.122858949583
0.043580440284
0.00182266438874
0.134844428948
0.134844418923
0.134844418562
0.134844418552
0.134844418551
0.134844418551
0.134844418547
0.134844418334
0.134844406992
0.134843891992
0.134824612953
0.134260231444
0.122859282162
0.0435804472913
0.001822664397
0.134844440285
0.134844430264
0.134844429903
0.134844429893
0.134844429892
0.134844429892
0.134844429888
0.134844429675
0.134844418334
0.134843903333
0.13482462428
0.134260242442
0.122859288962
0.0435804458906
0.00182266439239
0.134844440498
0.134844430478
0.134844430117
0.134844430107
0.134844430106
0.134844430106
0.134844430102
0.134844429888
0.134844418548
0.134843903546
0.134824624493
0.134260242634
0.122859288632
0.043580443427
0.00182266439248
0.134844440502
0.134844430481
0.134844430121
0.13484443011
0.13484443011
0.13484443011
0.134844430106
0.134844429892
0.134844418551
0.134843903551
0.134824624495
0.134260242616
0.122859288783
0.0435804454199
0.00182266437575
0.134844440502
0.134844430481
0.134844430121
0.13484443011
0.134844430109
0.13484443011
0.134844430106
0.134844429892
0.134844418551
0.13484390355
0.134824624495
0.134260242608
0.122859288422
0.0435804434106
0.00182266438722
0.134844440503
0.134844430482
0.134844430121
0.134844430111
0.13484443011
0.13484443011
0.134844430107
0.134844429893
0.134844418552
0.134843903551
0.134824624496
0.134260242614
0.122859288715
0.0435804449521
0.00182266438546
0.134844440513
0.134844430492
0.134844430132
0.134844430121
0.134844430121
0.134844430121
0.134844430117
0.134844429904
0.134844418562
0.134843903562
0.134824624514
0.134260242766
0.122859289773
0.0435804443375
0.00182266438492
0.134844440875
0.134844430854
0.134844430493
0.134844430483
0.134844430482
0.134844430482
0.134844430478
0.134844430265
0.134844418924
0.134843903931
0.134824625086
0.134260247037
0.12285932518
0.0435804577828
0.00182266437824
0.134844450931
0.134844440897
0.134844440536
0.134844440525
0.134844440525
0.134844440525
0.134844440521
0.134844440307
0.134844428971
0.134843914119
0.134824639187
0.134260335685
0.12286010714
0.0435809470335
0.00182266445086
0.00182266409459
0.00182266401845
0.001822664032
0.00182266401922
0.00182266402138
0.00182266403645
0.00182266402817
0.00182266402647
0.00182266405091
0.00182266403612
0.0018226640691
0.00182266403842
0.00182266337472
0.00182263400958
0.00163546384271
0.0435651621083
0.0435646729049
0.0435646596454
0.0435646602504
0.0435646588828
0.0435646614327
0.0435646593447
0.0435646621362
0.0435646633027
0.0435646602686
0.043564516657
0.0435554803377
0.0431503043012
0.0311723762809
0.00182263401003
0.122846387736
0.122845604556
0.122845569297
0.122845567985
0.122845567639
0.122845568507
0.122845567727
0.122845568062
0.122845560859
0.122845229827
0.122832224171
0.12243006636
0.113664556911
0.0431503042018
0.00182266336948
0.134259352008
0.134259263566
0.134259259315
0.134259259137
0.13425925912
0.13425925917
0.134259259126
0.134259258934
0.134259247874
0.134258744902
0.134239860706
0.133685225397
0.122430074904
0.0435554795537
0.00182266405591
0.134824621358
0.134824607255
0.134824606686
0.134824606664
0.134824606663
0.134824606665
0.134824606662
0.13482460646
0.134824595101
0.134824079476
0.134804778818
0.134239861917
0.122832234151
0.0435645165721
0.00182266406988
0.134843935824
0.134843925638
0.134843925269
0.134843925258
0.134843925258
0.134843925257
0.134843925254
0.134843925043
0.134843913692
0.134843397521
0.134824079519
0.134258745743
0.122845238891
0.0435646593494
0.00182266403575
0.13484445185
0.134844441807
0.134844441446
0.134844441435
0.134844441435
0.134844441435
0.134844441431
0.134844441218
0.134844429851
0.134843913685
0.134824595151
0.134259248849
0.122845571328
0.0435646640112
0.00182266403919
0.134844463215
0.134844453175
0.134844452814
0.134844452803
0.134844452803
0.134844452803
0.134844452799
0.134844452586
0.13484444122
0.134843925045
0.134824606507
0.13425925959
0.12284557844
0.0435646626904
0.0018226640401
0.134844463429
0.134844453389
0.134844453029
0.134844453018
0.134844453018
0.134844453016
0.134844453012
0.134844452801
0.134844441451
0.134843925258
0.134824606712
0.134259260097
0.122845578182
0.0435646600603
0.00182266404053
0.134844463433
0.134844453394
0.134844453033
0.134844453023
0.134844453022
0.134844453021
0.134844453017
0.134844452802
0.134844441437
0.13484392526
0.134824606711
0.134259260059
0.122845578028
0.043564661004
0.0018226640198
0.134844463433
0.134844453393
0.134844453032
0.134844453022
0.134844453021
0.134844453022
0.134844453017
0.134844452802
0.134844441435
0.134843925259
0.13482460671
0.134259259876
0.122845577466
0.0435646589334
0.00182266403482
0.134844463433
0.134844453394
0.134844453033
0.134844453022
0.134844453022
0.134844453022
0.134844453019
0.134844452803
0.134844441435
0.13484392526
0.134824606712
0.134259260055
0.122845577898
0.0435646601291
0.00182266403235
0.134844463443
0.134844453404
0.134844453043
0.134844453033
0.134844453033
0.134844453033
0.134844453029
0.134844452814
0.134844441445
0.134843925271
0.134824606732
0.134259260232
0.122845579175
0.0435646597753
0.00182266403145
0.134844463805
0.134844453766
0.134844453405
0.134844453394
0.134844453394
0.134844453394
0.134844453391
0.134844453176
0.134844441808
0.13484392564
0.134824607303
0.134259264496
0.122845614472
0.0435646728937
0.00182266401893
0.134844473881
0.134844463829
0.134844463467
0.134844463456
0.134844463456
0.134844463456
0.134844463452
0.134844463239
0.134844451874
0.13484393585
0.134824621439
0.134259353293
0.122846398972
0.0435651633498
0.0018226640937
0.00182266422574
0.00182266415002
0.00182266417578
0.00182266415082
0.0018226641531
0.00182266418078
0.00182266416019
0.00182266416181
0.00182266419343
0.00182266415541
0.00182266421464
0.00182266415953
0.00182266349678
0.00182263413288
0.00163554489519
0.043566256624
0.0435657673492
0.0435657565698
0.0435657529264
0.0435657523063
0.0435657552619
0.04356575411
0.0435657550748
0.0435657550835
0.0435657525285
0.0435655860053
0.0435565747579
0.0431512813104
0.0311735320479
0.00182263413329
0.12284648863
0.122845720636
0.12284568661
0.122845674016
0.12284567997
0.122845684725
0.122845684246
0.122845675042
0.122845676783
0.122845341016
0.122832323265
0.122430165959
0.113664732876
0.0431512790167
0.00182266349096
0.134259351563
0.134259265307
0.134259261297
0.134259259874
0.134259260777
0.13425926094
0.134259260917
0.134259259561
0.134259249627
0.134258746502
0.13423986043
0.133685225267
0.122430194531
0.0435565764406
0.0018226642023
0.134824621889
0.13482460786
0.134824607306
0.13482460725
0.134824607265
0.13482460727
0.134824607274
0.134824607063
0.134824595722
0.134824080075
0.134804779306
0.13423986386
0.122832351435
0.0435655879693
0.00182266421544
0.134843936524
0.134843926339
0.13484392597
0.134843925958
0.134843925958
0.134843925958
0.134843925956
0.134843925747
0.134843914376
0.134843398197
0.134824080126
0.134258746857
0.122845350351
0.0435657521803
0.00182266415434
0.134844452554
0.134844442511
0.134844442149
0.134844442138
0.134844442142
0.134844442139
0.134844442135
0.134844441926
0.13484443056
0.1348439144
0.134824595772
0.134259250112
0.122845683727
0.0435657550218
0.00182266417057
0.134844463918
0.134844453878
0.134844453517
0.134844453506
0.134844453506
0.134844453506
0.134844453502
0.134844453291
0.134844441932
0.13484392575
0.134824607066
0.134259259384
0.122845678794
0.0435657527998
0.00182266417767
0.134844464131
0.134844454091
0.134844453734
0.13484445372
0.134844453723
0.134844453718
0.134844453714
0.134844453505
0.134844442136
0.13484392596
0.134824607286
0.134259260347
0.122845683843
0.0435657536302
0.00182266418327
0.134844464134
0.134844454098
0.134844453738
0.134844453727
0.134844453727
0.134844453723
0.134844453718
0.134844453504
0.134844442143
0.134843925961
0.134824607328
0.134259262043
0.12284569538
0.0435657543111
0.0018226641383
0.134844464134
0.134844454095
0.134844453725
0.134844453728
0.134844453726
0.134844453726
0.134844453719
0.134844453503
0.134844442143
0.134843925959
0.134824607261
0.13425925972
0.122845678457
0.0435657500204
0.00182266417993
0.134844464135
0.134844454097
0.134844453737
0.134844453706
0.13484445373
0.134844453727
0.134844453723
0.134844453505
0.134844442141
0.134843925961
0.134824607333
0.134259262126
0.122845695988
0.0435657539473
0.00182266417509
0.134844464145
0.134844454105
0.134844453744
0.134844453737
0.13484445374
0.134844453737
0.134844453735
0.134844453516
0.134844442148
0.134843925972
0.134824607354
0.134259261658
0.122845692311
0.0435657541802
0.00182266417408
0.1348444645
0.134844454468
0.134844454107
0.134844454096
0.134844454098
0.1348444541
0.134844454096
0.134844453878
0.134844442511
0.134843926341
0.134824607923
0.134259266486
0.122845730373
0.0435657647538
0.00182266415008
0.13484447456
0.134844464522
0.134844464167
0.134844464156
0.134844464156
0.134844464157
0.134844464152
0.13484446394
0.134844452576
0.134843936549
0.134824621989
0.134259353121
0.122846499366
0.0435662538739
0.00182266420836
0.00182266418834
0.0018226641123
0.00182266408158
0.00182266411292
0.00182266411471
0.00182266409985
0.00182266412042
0.00182266407925
0.00182266408134
0.0018226640246
0.00182266405556
0.00182266402178
0.00182266333399
0.00182263397648
0.0016363075526
0.0435663089681
0.0435658193994
0.0435658094779
0.0435658052509
0.0435658062866
0.0435658075934
0.0435658062882
0.0435658077448
0.0435658070772
0.0435658068949
0.0435656376969
0.043556630528
0.0431513300899
0.0311735875305
0.00182263397703
0.122846499421
0.12284572653
0.122845693449
0.122845682248
0.122845687035
0.122845690836
0.122845690354
0.122845683609
0.1228456826
0.122845348734
0.122832332808
0.122430177645
0.113664742712
0.0431513274028
0.00182266332946
0.134259351977
0.134259264263
0.134259260333
0.134259259604
0.134259259909
0.134259259866
0.13425925982
0.1342592594
0.134259248584
0.134258745884
0.13423986072
0.133685226161
0.122430201401
0.0435566309995
0.00182266407202
0.134824621585
0.134824607496
0.13482460694
0.134824606907
0.134824606901
0.134824606904
0.134824606901
0.13482460669
0.134824595336
0.134824079701
0.13480477894
0.134239862982
0.122832356358
0.043565638975
0.00182266405631
0.13484393616
0.134843925972
0.134843925603
0.134843925591
0.134843925591
0.134843925591
0.134843925588
0.134843925374
0.134843913933
0.134843397803
0.134824079776
0.134258746717
0.122845358852
0.0435658050786
0.00182266402718
0.13484445219
0.134844442144
0.134844441782
0.134844441771
0.134844441772
0.134844441774
0.134844441768
0.134844441561
0.134844430186
0.134843914013
0.134824595406
0.134259249912
0.122845691752
0.0435658070677
0.00182266412746
0.134844463554
0.134844453511
0.13484445315
0.134844453139
0.134844453139
0.134844453139
0.134844453134
0.134844452923
0.134844441557
0.13484392538
0.134824606715
0.13425925975
0.122845690228
0.0435658070632
0.00182266409568
0.134844463766
0.134844453725
0.134844453365
0.134844453354
0.134844453354
0.134844453353
0.134844453349
0.134844453133
0.134844441696
0.134843925596
0.134824606953
0.134259260215
0.122845691998
0.043565805896
0.00182266399455
0.134844463771
0.134844453727
0.134844453367
0.134844453358
0.134844453358
0.134844453357
0.134844453353
0.134844453138
0.134844441766
0.134843925594
0.134824606967
0.134259261157
0.122845701349
0.0435658066884
0.0018226640108
0.134844463771
0.134844453725
0.134844453347
0.134844453355
0.134844453357
0.134844453355
0.134844453353
0.134844453138
0.134844441768
0.134843925592
0.134824606947
0.134259259999
0.122845689492
0.0435658047675
0.00182266409464
0.134844463771
0.134844453735
0.134844453475
0.134844453336
0.134844453366
0.134844453357
0.134844453346
0.134844453138
0.134844441768
0.134843925593
0.134824606971
0.13425926124
0.122845701795
0.0435658069034
0.00182266404145
0.134844463778
0.134844453738
0.134844453395
0.134844453486
0.134844453482
0.134844453384
0.134844453366
0.13484445315
0.134844441781
0.134843925605
0.134824607008
0.134259261436
0.122845700398
0.0435658074697
0.00182266405639
0.134844464126
0.134844454099
0.134844453741
0.13484445375
0.134844453843
0.134844453833
0.134844453735
0.134844453512
0.134844442144
0.134843925976
0.134824607564
0.134259265692
0.122845737395
0.0435658183878
0.0018226641122
0.134844474134
0.134844464146
0.134844463798
0.134844463792
0.134844463798
0.134844463799
0.134844463786
0.134844463573
0.13484445221
0.134843936183
0.134824621678
0.134259353445
0.122846510944
0.0435663088784
0.0018226640895
0.00182266421525
0.00182266413818
0.00182266408447
0.00182266413881
0.00182266414041
0.00182266410041
0.00182266414589
0.0018226640801
0.00182266408218
0.00182266398091
0.0018226640564
0.00182266397547
0.00182266328745
0.00182263393476
0.00163626937732
0.0435664964025
0.0435660049087
0.0435659981969
0.0435659914176
0.0435660019731
0.043565993805
0.0435659929918
0.0435659955053
0.0435659932778
0.0435660025826
0.0435658257277
0.0435568257948
0.0431515074089
0.031173768633
0.00182263393535
0.122846565759
0.122845760013
0.122845729495
0.122845721734
0.122845725949
0.122845723129
0.122845723787
0.12284572724
0.122845715264
0.122845389175
0.122832382819
0.12243024114
0.113664795218
0.0431515023899
0.00182266328792
0.134259356865
0.134259264975
0.134259261049
0.13425926082
0.134259260633
0.134259260442
0.134259260444
0.134259261095
0.134259249198
0.134258746565
0.134239863266
0.13368523313
0.122430238393
0.0435568204951
0.00182266407291
0.134824621765
0.134824607552
0.134824606992
0.134824606961
0.134824606954
0.134824606952
0.134824606948
0.134824606765
0.134824595361
0.134824079744
0.134804779086
0.134239863714
0.122832388994
0.0435658235348
0.00182266405717
0.134843936135
0.134843925947
0.134843925579
0.134843925568
0.134843925567
0.134843925566
0.134843925563
0.134843925354
0.134843913993
0.134843397783
0.134824079843
0.134258748914
0.122845406025
0.0435659930826
0.00182266398422
0.134844452162
0.134844442119
0.13484444176
0.134844441748
0.13484444175
0.13484444175
0.134844441744
0.134844441547
0.134844430159
0.134843913997
0.134824595457
0.134259252079
0.122845740207
0.0435659960731
0.00182266415258
0.134844463527
0.134844453487
0.134844453127
0.134844453116
0.134844453116
0.134844453116
0.134844453111
0.134844452899
0.13484444154
0.13484392535
0.134824606919
0.134259265103
0.122845767466
0.0435660018957
0.00182266409544
0.134844463741
0.134844453701
0.134844453341
0.134844453333
0.134844453333
0.134844453329
0.134844453326
0.134844453111
0.134844441704
0.134843925577
0.134824607027
0.134259262104
0.122845734842
0.0435659914155
0.00182266399263
0.134844463749
0.134844453704
0.134844453344
0.134844453335
0.134844453334
0.134844453335
0.134844453329
0.134844453116
0.134844441746
0.134843925574
0.134824607022
0.134259261908
0.122845736211
0.043565994225
0.00182266397123
0.134844463748
0.134844453707
0.134844453321
0.13484445334
0.134844453334
0.134844453332
0.134844453331
0.134844453115
0.13484444176
0.134843925571
0.13482460714
0.13425926529
0.122845758125
0.0435660003649
0.00182266409522
0.134844463741
0.134844453714
0.134844453391
0.134844453309
0.134844453354
0.134844453334
0.134844453325
0.134844453115
0.134844441747
0.13484392557
0.134824607028
0.134259261981
0.12284573644
0.0435659950222
0.00182266404255
0.134844463707
0.134844453705
0.134844453373
0.134844453411
0.134844453371
0.134844453358
0.134844453343
0.134844453128
0.134844441758
0.134843925583
0.134824607066
0.134259263219
0.122845745398
0.0435659970691
0.0018226640575
0.134844463466
0.134844454007
0.134844453708
0.134844453727
0.134844453739
0.134844453725
0.13484445371
0.134844453489
0.13484444212
0.134843925952
0.134824607618
0.134259266461
0.12284577439
0.0435660095589
0.00182266413746
0.134844465949
0.13484446352
0.134844463733
0.134844463767
0.134844463777
0.134844463776
0.134844463766
0.134844463551
0.134844452186
0.134843936162
0.134824621872
0.134259358742
0.122846579844
0.0435665067182
0.00182266404937
0.00182266415147
0.00182266408307
0.00182266407815
0.00182266407531
0.00182266407311
0.0018226641378
0.00182266399631
0.00182266411956
0.00182266414303
0.00182266401299
0.00182266415011
0.00182266401094
0.00182266332065
0.00182263396851
0.00163658672587
0.0435665099108
0.0435660201056
0.0435660123805
0.0435660065289
0.0435660150391
0.0435660074904
0.0435660083561
0.0435660101422
0.0435660079345
0.0435660153742
0.0435658391887
0.0435568389912
0.0431515211353
0.0311737840348
0.00182263396908
0.122846566207
0.122845763743
0.122845732525
0.122845728168
0.122845728445
0.122845725693
0.122845726559
0.122845731162
0.122845718901
0.122845391709
0.122832385076
0.122430242056
0.113664799771
0.0431515162112
0.00182266332133
0.134259356277
0.134259265571
0.134259261526
0.13425926154
0.134259260972
0.134259260956
0.134259260962
0.134259261642
0.13425924983
0.134258746841
0.134239863483
0.133685232998
0.122430241195
0.0435568340207
0.00182266414149
0.134824622073
0.134824607917
0.134824607355
0.134824607337
0.134824607313
0.134824607318
0.134824607286
0.134824607106
0.134824595681
0.134824080105
0.134804779363
0.13423986379
0.122832391619
0.0435658372073
0.00182266415104
0.134843936451
0.134843926267
0.134843925899
0.134843925887
0.134843925886
0.134843925887
0.134843925882
0.134843925688
0.134843914315
0.134843398088
0.13482408023
0.134258749375
0.122845407202
0.0435660068013
0.00182266402067
0.134844452477
0.134844442439
0.134844442091
0.134844442066
0.134844442088
0.134844442079
0.134844442064
0.134844441926
0.134844430528
0.134843914303
0.134824595786
0.134259252503
0.122845740932
0.0435660096
0.00182266398656
0.134844463842
0.134844453804
0.134844453445
0.134844453432
0.134844453433
0.134844453436
0.134844453429
0.134844453218
0.134844441866
0.134843925735
0.134824607185
0.134259264117
0.122845761805
0.043566015045
0.00182266412838
0.134844464058
0.134844454014
0.134844453659
0.134844453675
0.134844453674
0.134844453642
0.134844453639
0.13484445343
0.134844442081
0.134843925926
0.134824607408
0.134259262787
0.122845741958
0.0435660086109
0.00182266412184
0.13484446409
0.134844454023
0.134844453675
0.13484445366
0.134844453652
0.134844453665
0.134844453629
0.134844453431
0.134844442078
0.134843925913
0.134824607395
0.134259262352
0.122845739561
0.0435660091267
0.00182266400184
0.13484446408
0.134844454063
0.134844453685
0.134844453712
0.134844453657
0.134844453651
0.134844453664
0.134844453434
0.134844442145
0.134843925895
0.134824607459
0.134259265022
0.122845760467
0.0435660151763
0.00182266413514
0.134844463954
0.134844454024
0.13484445333
0.134844453697
0.134844453708
0.134844453654
0.134844453658
0.134844453433
0.134844442073
0.134843925891
0.1348246074
0.134259262436
0.122845739776
0.0435660092178
0.00182266413276
0.13484445998
0.13484445373
0.134844453653
0.134844453311
0.134844453268
0.134844453641
0.13484445366
0.134844453445
0.134844442077
0.134843925923
0.134824607457
0.134259264199
0.1228457488
0.0435660116883
0.00182266413251
0.134844361899
0.134844446819
0.13484445374
0.134844454007
0.134844453638
0.134844453692
0.134844454009
0.134844453803
0.134844442437
0.134843926274
0.134824607978
0.134259266863
0.122845777358
0.0435660241483
0.00182266408367
0.134843084624
0.134844366417
0.134844460381
0.134844463992
0.134844464088
0.134844464071
0.134844464078
0.134844463864
0.1348444525
0.134843936479
0.134824622189
0.1342593586
0.122846581415
0.0435665204958
0.00182266408265
0.001822664152
0.00182266408353
0.00182266408321
0.00182266407581
0.00182266407358
0.00182266398309
0.00182266399657
0.00182266398512
0.00182266398682
0.00182266404546
0.00182266402259
0.00182266409711
0.00182266340246
0.00182263405134
0.00163653942117
0.043566550228
0.0435660648426
0.0435660524534
0.0435660517055
0.0435660542738
0.0435660502471
0.0435660541473
0.0435660535207
0.0435660545743
0.0435660534471
0.04356587981
0.0435568775343
0.043151562735
0.0311738265378
0.00182263405191
0.122846571239
0.122845778744
0.122845743059
0.122845764218
0.122845738992
0.122845737803
0.122845740508
0.122845744894
0.122845733253
0.122845401729
0.122832395077
0.122430248738
0.113664821056
0.0431515594838
0.00182266340367
0.134259355937
0.134259266198
0.134259261712
0.134259264099
0.134259261194
0.13425926159
0.134259261305
0.134259262215
0.134259250175
0.134258747292
0.134239864103
0.133685233721
0.122430253362
0.0435568742735
0.00182266398127
0.134824621805
0.134824607616
0.134824607049
0.134824607096
0.134824607018
0.134824607047
0.134824606997
0.134824606808
0.134824595436
0.134824079795
0.134804779209
0.13423986474
0.122832405855
0.0435658818722
0.00182266399294
0.134843936168
0.134843925985
0.134843925614
0.134843925597
0.1348439256
0.134843925714
0.1348439256
0.134843925382
0.134843913917
0.134843397817
0.134824079899
0.134258749375
0.122845414634
0.0435660475966
0.00182266410833
0.134844452198
0.134844442265
0.134844441885
0.134844441777
0.134844441722
0.134844441795
0.134844441777
0.134844441651
0.134844430162
0.134843913951
0.134824595525
0.13425925215
0.122845745902
0.0435660505002
0.00182266398553
0.134844463551
0.134844453522
0.134844453156
0.134844453101
0.134844453139
0.134844453264
0.134844453148
0.13484445293
0.13484444155
0.134843925381
0.13482460686
0.134259263693
0.122845761229
0.0435660558264
0.00182266399203
0.134844463742
0.134844453729
0.134844453363
0.134844453296
0.134844453306
0.134844453464
0.134844453363
0.134844453134
0.13484444168
0.134843925595
0.134824607198
0.134259266546
0.122845787832
0.0435660643338
0.00182266399343
0.13484446372
0.134844453692
0.134844453354
0.134844453349
0.134844453348
0.134844453302
0.134844453356
0.13484445314
0.134844441762
0.134843925599
0.1348246071
0.134259263079
0.122845755326
0.0435660542145
0.00182266402624
0.134844463376
0.134844453643
0.134844453319
0.134844453345
0.134844453363
0.134844453349
0.134844453292
0.134844453134
0.134844441758
0.134843925598
0.134824607138
0.134259265094
0.122845771681
0.0435660597516
0.00182266398795
0.134844448602
0.134844452478
0.134844453255
0.134844453575
0.134844453467
0.134844453368
0.134844453342
0.134844453138
0.134844441753
0.134843925607
0.134824607092
0.134259262976
0.122845753098
0.0435660555085
0.00182266398202
0.134843931938
0.134844413071
0.134844451749
0.134844453283
0.134844453352
0.134844453614
0.134844453371
0.134844453152
0.134844441791
0.134843925886
0.134824607122
0.134259264188
0.122845755225
0.0435660522057
0.00182266398101
0.134831163146
0.134843475877
0.134844415384
0.134844452804
0.13484445369
0.134844453784
0.134844453836
0.134844453517
0.134844442153
0.134843926102
0.134824607696
0.13425926768
0.122845792078
0.0435660682483
0.0018226640841
0.134661183468
0.134831723617
0.134843980901
0.134844450831
0.134844463689
0.134844463973
0.134844463775
0.134844463575
0.13484445221
0.134843936196
0.134824621868
0.134259358723
0.12284659083
0.0435665635467
0.00182266411629
0.0018226642136
0.0018226641365
0.00182266402196
0.00182266413607
0.00182266413682
0.00182266397689
0.00182266414
0.00182266397845
0.00182266397922
0.0018226640539
0.0018226639822
0.00182266397293
0.00182266327856
0.00182263392729
0.00163670405327
0.0435665630621
0.0435660915986
0.0435660618838
0.043566072606
0.0435660632771
0.0435660643735
0.0435660820892
0.0435660620521
0.043566068367
0.0435660610816
0.0435658963605
0.0435568852343
0.0431515699959
0.0311738340431
0.00182263392714
0.122846575489
0.122845804568
0.122845749417
0.122845763643
0.122845745102
0.122845741443
0.122845745013
0.122845762936
0.122845743569
0.122845407703
0.122832403102
0.122430253065
0.113664834745
0.0431515693459
0.00182266327961
0.134259356466
0.134259268816
0.134259262487
0.134259264054
0.134259261951
0.13425926335
0.134259261725
0.134259263972
0.134259251505
0.134258747976
0.134239864963
0.133685235047
0.12243025655
0.0435568826244
0.00182266397089
0.134824621743
0.134824607705
0.134824607063
0.13482460707
0.13482460703
0.134824607102
0.134824606998
0.13482460686
0.134824595469
0.13482407981
0.134804779267
0.134239867636
0.122832427744
0.0435658904702
0.0018226639829
0.134843936162
0.134843925984
0.134843925611
0.134843925594
0.134843925597
0.134843925686
0.134843925596
0.134843925377
0.134843913989
0.13484339779
0.134824079924
0.134258749927
0.122845423911
0.0435660629878
0.00182266403916
0.134844452193
0.134844442207
0.134844441799
0.13484444177
0.134844441684
0.134844441785
0.134844441773
0.134844441565
0.134844430157
0.134843913995
0.134824595528
0.134259252359
0.122845749693
0.0435660579257
0.00182266399184