/*--------------------------------*- C++ -*----------------------------------*\
| =========                 |                                                 |
| \\      /  F ield         | OpenFOAM: The Open Source CFD Toolbox           |
|  \\    /   O peration     | Version:  2406                                  |
|   \\  /    A nd           | Website:  www.openfoam.com                      |
|    \\/     M anipulation  |                                                 |
\*---------------------------------------------------------------------------*/
FoamFile
{
    version     2.0;
    format      ascii;
    arch        "LSB;label=32;scalar=64";
    class       volScalarField;
    location    "0.01";
    object      omega_0;
}
// * * * * * * * * * * * * * * * * * * * * * * * * * * * * * * * * * * * * * //

dimensions      [0 0 -1 0 0 0 0];

internalField   nonuniform List<scalar> 
29767
(
130.265081161
130.265075767
130.26507579
130.265075816
130.265075904
130.265075933
130.265076168
130.265076168
130.265076799
130.265076602
130.265078344
130.265076655
130.265032565
130.262938987
130.256418584
5.30636507345
5.30641865327
5.30642016077
5.30642005082
5.30642028571
5.30641996952
5.30642012861
5.30642006449
5.30641791989
5.30642270447
5.30642232482
5.30750832574
5.35533888924
7.37134283447
130.26293902
1.94128873052
1.94129964663
1.94130014262
1.9413001586
1.94130016586
1.94130015928
1.94130016518
1.94130016837
1.94130022849
1.94130517457
1.94149465187
1.94742356416
2.08846054892
5.35533889911
130.265032621
1.78667596733
1.78667687414
1.78667691903
1.78667692084
1.78667692115
1.78667692109
1.78667692125
1.78667692413
1.78667705571
1.78668313991
1.78691262903
1.79373822326
1.94742349753
5.30750832073
130.265076706
1.77978197723
1.77978199846
1.77978199948
1.77978199957
1.77978199966
1.77978199976
1.77978199998
1.77978200272
1.77978213858
1.77978831466
1.78002081831
1.78691262815
1.94149458023
5.30642231785
130.265078399
1.77954939829
1.77954937352
1.77954937217
1.77954937215
1.77954937221
1.7795493723
1.77954937247
1.77954937519
1.77954951109
1.77955569126
1.77978831484
1.78668313917
1.94130510248
5.30642269751
130.265076658
1.77954321975
1.77954319331
1.77954319187
1.77954319185
1.77954319191
1.779543192
1.77954319217
1.77954319489
1.7795433308
1.77954951111
1.77978213878
1.78667705498
1.94130015632
5.3064179128
130.265076856
1.77954308397
1.77954305748
1.77954305604
1.77954305601
1.77954305607
1.77954305615
1.77954305631
1.77954305903
1.77954319489
1.7795493752
1.77978200293
1.7866769236
1.9413000985
5.30642007375
130.26507622
1.77954308126
1.77954305477
1.77954305332
1.7795430533
1.77954305335
1.77954305344
1.7795430536
1.77954305631
1.77954319217
1.77954937249
1.77978200018
1.78667692052
1.94130009297
5.30642012004
130.265076221
1.77954308112
1.77954305463
1.77954305318
1.77954305315
1.7795430532
1.77954305329
1.77954305344
1.77954305615
1.779543192
1.77954937231
1.77978199996
1.78667692034
1.94130008689
5.30641995938
130.265075993
1.77954308103
1.77954305455
1.7795430531
1.77954305307
1.77954305312
1.77954305321
1.77954305335
1.77954305607
1.77954319191
1.77954937223
1.77978199986
1.78667692039
1.94130009334
5.30642027398
130.265075956
1.77954308099
1.7795430545
1.77954305305
1.77954305302
1.77954305307
1.77954305315
1.7795430533
1.77954305602
1.77954319185
1.77954937217
1.77978199977
1.78667692011
1.94130008637
5.30642003926
130.265075869
1.77954308101
1.77954305452
1.77954305307
1.77954305305
1.7795430531
1.77954305318
1.77954305332
1.77954305604
1.77954319187
1.77954937219
1.77978199969
1.7866769185
1.94130007263
5.30642016431
130.265075845
1.77954308248
1.77954305598
1.77954305452
1.7795430545
1.77954305455
1.77954305463
1.77954305477
1.77954305749
1.77954319331
1.77954937354
1.77978199866
1.78667687334
1.94129957367
5.30641863694
130.265075822
1.77954310927
1.77954308252
1.77954308106
1.77954308103
1.77954308108
1.77954308116
1.77954308131
1.77954308402
1.77954321979
1.77954939835
1.77978197742
1.78667596549
1.94128864571
5.30636501581
130.265081212
130.258749803
130.258744335
130.258744889
130.258744361
130.258744486
130.258745102
130.258744894
130.258744529
130.258746183
130.258745141
130.25874796
130.258745309
130.25870083
130.256604628
130.25029999
5.50422498297
5.50428600722
5.50428768959
5.50428758417
5.50428779543
5.50428751872
5.50428781746
5.50428752207
5.50428735497
5.50428811535
5.50430555129
5.50544806209
5.55709889693
7.69098035196
130.256604659
1.95306884609
1.95308107276
1.95308162791
1.9530816419
1.95308164864
1.95308163882
1.95308164777
1.95308164633
1.95308175213
1.95308702471
1.95329341032
1.95969974685
2.11065089022
5.55709889802
130.258700547
1.78725650512
1.78725752012
1.78725757045
1.78725757206
1.78725757233
1.78725757188
1.78725757219
1.78725757511
1.78725772125
1.78726440217
1.78751527727
1.79491772322
1.95969960391
5.50544812115
130.258746251
1.77977710633
1.77977713005
1.77977713117
1.7797771312
1.77977713122
1.77977713121
1.77977713128
1.77977713412
1.77977728363
1.77978407384
1.78003832089
1.7875152643
1.95329324526
5.50430554553
130.258748015
1.77952273648
1.77952270864
1.77952270709
1.77952270703
1.77952270704
1.77952270704
1.77952270712
1.77952270995
1.77952285961
1.77952965501
1.77978407318
1.78726438911
1.95308686608
5.50428817916
130.258745137
1.77951594285
1.77951591314
1.77951591149
1.77951591143
1.77951591144
1.77951591144
1.77951591152
1.77951591435
1.77951606402
1.77952285958
1.77977728289
1.78725770706
1.95308157981
5.50428729469
130.258745726
1.77951579323
1.77951576347
1.77951576182
1.77951576175
1.77951576177
1.77951576177
1.77951576184
1.77951576468
1.77951591435
1.77952270992
1.77977713336
1.78725756066
1.95308147171
5.50428747171
130.258745397
1.7795157904
1.77951576064
1.77951575899
1.77951575892
1.77951575893
1.77951575894
1.77951575901
1.77951576184
1.77951591151
1.77952270709
1.77977713054
1.78725755808
1.95308147693
5.50428778267
130.258745404
1.77951579033
1.77951576057
1.77951575892
1.77951575886
1.77951575887
1.77951575887
1.77951575894
1.77951576177
1.77951591144
1.77952270701
1.77977713049
1.7872575583
1.9530814745
5.50428752983
130.258744211
1.77951579033
1.77951576057
1.77951575892
1.77951575885
1.77951575886
1.77951575887
1.77951575893
1.77951576176
1.77951591143
1.77952270701
1.77977713048
1.7872575584
1.95308148024
5.50428778447
130.258745029
1.77951579032
1.77951576056
1.77951575891
1.77951575884
1.77951575885
1.77951575886
1.77951575892
1.77951576175
1.77951591143
1.779522707
1.77977713048
1.78725755832
1.95308147559
5.50428758977
130.258744903
1.77951579039
1.77951576062
1.77951575897
1.77951575891
1.77951575892
1.77951575892
1.77951575899
1.77951576182
1.77951591149
1.77952270706
1.77977713043
1.7872575565
1.95308145898
5.50428766754
130.258744865
1.77951579206
1.77951576228
1.77951576063
1.77951576056
1.77951576057
1.77951576057
1.77951576064
1.77951576347
1.77951591314
1.77952270861
1.77977712932
1.7872575061
1.95308090313
5.50428598045
130.258744389
1.77951582215
1.77951579209
1.77951579042
1.77951579035
1.77951579036
1.77951579036
1.77951579043
1.77951579326
1.77951594288
1.77952273648
1.77977710556
1.78725649007
1.95306866516
5.50422489565
130.258749567
130.258724162
130.258718732
130.258719698
130.258718787
130.258718941
130.258720015
130.258719425
130.258719304
130.258721047
130.258719993
130.258722344
130.258720156
130.258672828
130.256578827
130.250267981
5.50621812082
5.50627924355
5.50628090908
5.50628083103
5.50628100398
5.50628068329
5.50628094598
5.50628059327
5.50628044748
5.50628082993
5.50629897419
5.5074407966
5.55912923627
7.69374640815
130.256578859
1.95328649811
1.95329875816
1.95329931179
1.95329933243
1.95329933791
1.95329932413
1.95329933653
1.95329933122
1.95329944577
1.95330470855
1.95351149429
1.95992732402
2.11104410326
5.55912925962
130.258672455
1.78726933777
1.78727035102
1.78727040114
1.78727040332
1.78727040354
1.78727040289
1.78727040348
1.78727040605
1.78727055327
1.78727724802
1.78752863677
1.79494365075
1.95992718835
5.50744091116
130.258721403
1.77977709682
1.77977712055
1.77977712164
1.77977712172
1.77977712173
1.77977712171
1.77977712176
1.77977712445
1.77977727438
1.77978408011
1.78003886367
1.78752862072
1.95351133676
5.50629899877
130.258722399
1.77952220599
1.77952217805
1.77952217649
1.77952217643
1.77952217643
1.77952217644
1.7795221765
1.7795221793
1.77952232909
1.77952914008
1.77978407955
1.78727723691
1.95330456561
5.50628095965
130.258719966
1.77951539696
1.77951536712
1.77951536546
1.77951536539
1.77951536538
1.7795153654
1.77951536547
1.77951536831
1.77951551831
1.77952232919
1.77977727372
1.78727054039
1.9532992805
5.50628037075
130.258720211
1.77951524696
1.77951521709
1.77951521543
1.77951521536
1.77951521536
1.77951521538
1.77951521544
1.77951521828
1.77951536828
1.77952217929
1.77977712383
1.7872703974
1.95329916742
5.50628053822
130.258720276
1.77951524412
1.77951521424
1.77951521256
1.77951521251
1.7795152125
1.77951521253
1.7795152126
1.77951521542
1.77951536521
1.77952217646
1.77977712111
1.78727039064
1.95329917151
5.50628087064
130.258720306
1.77951524404
1.77951521416
1.77951521249
1.77951521243
1.77951521243
1.77951521246
1.77951521253
1.77951521537
1.77951536536
1.77952217641
1.77977712111
1.78727039113
1.95329917394
5.50628074973
130.258718829
1.77951524403
1.77951521416
1.7795152125
1.77951521243
1.77951521243
1.77951521244
1.77951521252
1.77951521536
1.77951536538
1.77952217641
1.77977712112
1.78727039357
1.95329918287
5.5062810128
130.258719899
1.77951524402
1.77951521415
1.7795152125
1.77951521243
1.77951521243
1.77951521244
1.77951521249
1.77951521535
1.77951536538
1.7795221764
1.7797771211
1.78727039118
1.95329917602
5.50628086156
130.258719723
1.77951524409
1.77951521423
1.77951521257
1.7795152125
1.77951521249
1.7795152125
1.77951521256
1.77951521542
1.77951536545
1.77952217646
1.77977712104
1.78727038903
1.95329915592
5.50628090641
130.258719659
1.77951524579
1.77951521589
1.77951521423
1.77951521416
1.77951521417
1.77951521417
1.77951521422
1.77951521708
1.77951536712
1.77952217802
1.77977711993
1.78727033874
1.9532986017
5.50627925882
130.258718766
1.779515276
1.77951524581
1.77951524412
1.77951524406
1.77951524406
1.77951524407
1.77951524414
1.77951524699
1.77951539699
1.77952220599
1.7797770961
1.7872693211
1.953286321
5.50621797802
130.258724098
130.258733514
130.258728115
130.258729951
130.258728171
130.258728334
130.258730308
130.25872884
130.258728955
130.25873121
130.258728499
130.258732722
130.258728793
130.258681533
130.25658762
130.250278267
5.50607984064
5.50614101308
5.50614236648
5.50614277837
5.50614290163
5.50614251825
5.50614263107
5.50614255304
5.50614255345
5.50614287439
5.50616391517
5.50730247547
5.55900346209
7.69346132858
130.256587649
1.95328489723
1.95329691607
1.9532974501
1.95329764982
1.95329755545
1.95329747984
1.9532974872
1.95329763386
1.95329760617
1.95330294422
1.953509922
1.9599257327
2.11104084029
5.55900375958
130.258681117
1.78726934568
1.78727032983
1.78727037675
1.78727039549
1.78727038345
1.78727038129
1.78727038158
1.78727039964
1.78727053188
1.78727722866
1.78752864242
1.79494365446
1.95992527709
5.50730231595
130.258731843
1.77977709182
1.77977711457
1.77977711545
1.77977711599
1.77977711578
1.77977711572
1.77977711567
1.77977711846
1.77977726812
1.77978407417
1.78003885922
1.78752859682
1.95350947523
5.50616368219
130.258732779
1.77952219874
1.77952217077
1.7795221692
1.77952216915
1.77952216913
1.77952216916
1.77952216919
1.77952217197
1.779522322
1.77952913307
1.7797840735
1.78727722403
1.95330279701
5.50614293264
130.258728423
1.77951538965
1.77951535978
1.77951535811
1.77951535805
1.779515358
1.77951535803
1.77951535811
1.7795153609
1.77951551091
1.77952232169
1.77977726748
1.78727052552
1.95329749684
5.50614254161
130.258729579
1.77951523965
1.77951520977
1.7795152081
1.77951520803
1.77951520802
1.77951520804
1.7795152081
1.77951521093
1.77951536083
1.77952217193
1.77977711843
1.78727040209
1.95329757532
5.50614282873
130.258730086
1.77951523681
1.77951520692
1.77951520519
1.77951520517
1.77951520512
1.77951520519
1.77951520525
1.77951520806
1.7795153581
1.77952216915
1.77977711551
1.78727038926
1.95329749512
5.50614275234
130.258730485
1.77951523673
1.77951520682
1.77951520514
1.77951520508
1.77951520507
1.77951520513
1.77951520519
1.77951520803
1.77951535798
1.77952216911
1.77977711495
1.78727036671
1.95329731166
5.50614266163
130.258727279
1.77951523672
1.77951520683
1.7795152053
1.77951520505
1.77951520507
1.77951520508
1.77951520517
1.77951520803
1.77951535797
1.77952216913
1.77977711584
1.78727039761
1.95329758077
5.50614320897
130.258730247
1.77951523672
1.77951520682
1.77951520518
1.77951520536
1.77951520502
1.77951520508
1.77951520513
1.77951520802
1.77951535801
1.7795221691
1.7797771149
1.7872703656
1.95329730202
5.50614271101
130.258729902
1.77951523679
1.77951520692
1.77951520526
1.77951520519
1.77951520514
1.77951520515
1.77951520518
1.77951520809
1.77951535811
1.77952216917
1.77977711482
1.78727037203
1.95329736068
5.50614268277
130.25872983
1.77951523858
1.77951520859
1.77951520692
1.77951520686
1.77951520685
1.77951520684
1.77951520685
1.77951520976
1.77951535978
1.77952217074
1.77977711375
1.78727031423
1.95329676232
5.50614131558
130.258728119
1.77951526901
1.7795152386
1.77951523682
1.77951523675
1.77951523675
1.77951523675
1.77951523682
1.77951523968
1.77951538968
1.77952219873
1.77977709082
1.78726932534
1.95328472814
5.50608020997
130.258732275
130.258730847
130.258725425
130.258723234
130.258725469
130.258725596
130.258724537
130.258726003
130.258723068
130.258723217
130.258719171
130.258721378
130.25871897
130.258669924
130.256576467
130.250263462
5.50607322663
5.50613440554
5.50613565333
5.5061361668
5.5061360636
5.50613590387
5.50613603811
5.50613588927
5.50613598218
5.50613599284
5.50615736682
5.50729542405
5.55899715475
7.69344763639
130.256576506
1.95328472155
1.95329681611
1.95329733528
1.95329751854
1.95329743875
1.95329738241
1.95329738978
1.95329749157
1.95329750768
1.95330281687
1.95350976803
1.95992554553
2.11104065727
5.55899752568
130.258669601
1.78726933494
1.78727033843
1.78727038428
1.78727039397
1.78727038983
1.7872703905
1.78727039113
1.7872703965
1.78727054047
1.78727723176
1.7875286348
1.79494364051
1.95992516297
5.50729540605
130.258722552
1.77977709071
1.77977711422
1.77977711512
1.77977711536
1.77977711543
1.77977711539
1.77977711545
1.77977711824
1.7797772681
1.77978407392
1.78003885911
1.78752860498
1.95350939298
5.50615723415
130.258721432
1.77952219838
1.77952217044
1.77952216888
1.77952216882
1.77952216882
1.77952216884
1.77952216887
1.7795221717
1.77952232268
1.77952913308
1.77978407295
1.78727722078
1.95330265747
5.50613623927
130.258719355
1.77951538935
1.77951535951
1.77951535785
1.77951535779
1.77951535778
1.7795153578
1.77951535784
1.77951536062
1.7795155107
1.77952232163
1.77977726719
1.78727052289
1.95329736378
5.50613596468
130.258726505
1.77951523939
1.77951520951
1.77951520784
1.77951520777
1.77951520777
1.77951520778
1.77951520783
1.77951521066
1.77951536068
1.77952217162
1.77977711791
1.78727039194
1.95329738736
5.50613597099
130.25872424
1.77951523656
1.77951520668
1.77951520501
1.77951520493
1.77951520494
1.77951520495
1.779515205
1.77951520785
1.77951535879
1.77952216876
1.77977711476
1.78727038579
1.95329735918
5.50613612312
130.258717028
1.77951523649
1.77951520666
1.779515205
1.77951520491
1.77951520491
1.7795152049
1.77951520495
1.77951520778
1.77951535785
1.77952216879
1.77977711456
1.78727037329
1.95329721177
5.50613600493
130.258718186
1.77951523647
1.77951520668
1.77951520534
1.77951520496
1.77951520491
1.77951520492
1.77951520495
1.77951520779
1.7795153578
1.7795221688
1.77977711482
1.7872703886
1.95329739912
5.50613627882
130.258724165
1.77951523649
1.77951520665
1.77951520505
1.77951520541
1.77951520491
1.77951520493
1.77951520506
1.77951520779
1.77951535781
1.77952216879
1.77977711451
1.78727037208
1.95329720355
5.50613601796
130.258720372
1.7795152366
1.77951520673
1.77951520507
1.77951520502
1.77951520498
1.77951520497
1.77951520501
1.77951520783
1.77951535785
1.77952216884
1.77977711423
1.78727036969
1.95329722598
5.50613593661
130.258721438
1.77951523848
1.77951520842
1.77951520671
1.77951520663
1.77951520665
1.77951520665
1.77951520667
1.7795152095
1.77951535951
1.77952217042
1.77977711334
1.78727031969
1.95329665026
5.50613453829
130.258725418
1.77951526956
1.77951523849
1.77951523663
1.77951523652
1.77951523652
1.77951523651
1.77951523657
1.77951523941
1.77951538938
1.77952219837
1.77977708978
1.78726931597
1.95328454369
5.50607325878
130.258723798
130.258732766
130.25872727
130.25872344
130.258727315
130.258727429
130.258724577
130.25872782
130.258723128
130.258723276
130.258716055
130.258721439
130.258715667
130.258666605
130.256573492
130.250262598
5.5060495915
5.50611095243
5.50611180347
5.50611269283
5.50611133394
5.5061123907
5.5061124951
5.50611215989
5.50611245778
5.50611126163
5.50613360369
5.50727077388
5.55897431153
7.6934030187
130.256573534
1.95328366687
1.95329628348
1.95329676195
1.95329689097
1.95329681908
1.95329686898
1.95329685843
1.95329679765
1.95329698813
1.95330217236
1.95350897257
1.95992452966
2.11103968219
5.5589749975
130.258666639
1.78726926961
1.78727032874
1.78727037454
1.78727037758
1.78727037999
1.78727038262
1.78727038259
1.78727037376
1.78727053213
1.78727722245
1.78752859934
1.79494354683
1.95992457005
5.5072714475
130.258722615
1.77977708815
1.77977711333
1.77977711429
1.7797771145
1.77977711458
1.77977711461
1.77977711466
1.77977711705
1.77977726757
1.77978407319
1.78003885696
1.78752859451
1.95350887354
5.50613391499
130.258721493
1.77952219855
1.77952217063
1.77952216907
1.77952216901
1.77952216901
1.77952216902
1.77952216906
1.77952217181
1.7795223217
1.77952913314
1.77978407189
1.78727719132
1.95330190649
5.50611247888
130.258716291
1.77951538958
1.77951535974
1.77951535806
1.77951535801
1.77951535797
1.77951535799
1.77951535806
1.77951536066
1.77951551091
1.77952232164
1.77977726631
1.78727049386
1.95329659336
5.50611212069
130.258728297
1.77951523961
1.77951520974
1.77951520806
1.779515208
1.77951520799
1.77951520801
1.77951520806
1.77951521087
1.77951536075
1.77952217186
1.77977711504
1.78727032049
1.95329615924
5.50611138278
130.258724223
1.77951523678
1.77951520691
1.77951520523
1.77951520514
1.77951520513
1.77951520518
1.77951520523
1.77951520807
1.77951535859
1.77952216887
1.77977711363
1.7872703604
1.95329667764
5.50611267762
130.258716891
1.77951523668
1.77951520688
1.7795152052
1.77951520512
1.77951520512
1.7795152051
1.77951520518
1.77951520801
1.77951535804
1.77952216893
1.7797771137
1.78727036306
1.95329665614
5.50611229674
130.258715365
1.77951523667
1.77951520685
1.77951520559
1.77951520505
1.77951520511
1.77951520514
1.77951520515
1.779515208
1.77951535785
1.77952216896
1.77977711214
1.78727031796
1.95329630748
5.50611155923
130.258724206
1.77951523677
1.77951520685
1.7795152052
1.77951520567
1.77951520496
1.77951520513
1.77951520524
1.77951520801
1.77951535802
1.77952216898
1.77977711362
1.78727036203
1.95329665253
5.50611225074
130.258720451
1.77951523742
1.77951520708
1.77951520527
1.77951520524
1.77951520519
1.77951520519
1.77951520523
1.77951520805
1.77951535808
1.779522169
1.77977711333
1.78727034575
1.95329651027
5.50611197516
130.258721517
1.77951524707
1.77951520954
1.77951520707
1.77951520684
1.77951520687
1.77951520687
1.77951520689
1.77951520973
1.77951535974
1.77952217059
1.77977711248
1.78727030926
1.9532960623
5.50611042741
130.258727218
1.77951537744
1.7795152467
1.77951523742
1.7795152368
1.77951523673
1.77951523674
1.7795152368
1.77951523963
1.7795153896
1.77952219854
1.77977708709
1.78726924524
1.9532834484
5.50604829674
130.258720937
130.258728217
130.25872334
130.258722989
130.258722787
130.25872263
130.258727243
130.258717153
130.258725942
130.258727616
130.258718342
130.258728121
130.258718196
130.258668973
130.256575899
130.250263682
5.50604786934
5.5061090421
5.50611003834
5.50611076677
5.50610966914
5.50611061751
5.50611054462
5.50611032461
5.50611056222
5.50610966112
5.50613192316
5.50726907714
5.55897255596
7.69339915226
130.25657594
1.95328366302
1.95329622982
1.95329671823
1.95329678297
1.95329677929
1.95329682205
1.95329680871
1.95329674103
1.95329693442
1.95330213242
1.9535089328
1.95992450863
2.11103959041
5.55897318919
130.258669021
1.78726928115
1.78727032456
1.78727037189
1.78727037171
1.78727037913
1.78727037915
1.78727037906
1.78727037125
1.78727052847
1.78727722237
1.78752859694
1.79494354509
1.95992452337
5.50726975455
130.258727506
1.77977708902
1.77977711342
1.77977711441
1.77977711449
1.77977711475
1.77977711465
1.77977711463
1.77977711676
1.77977726717
1.77978407306
1.78003885683
1.78752859238
1.9535088296
5.5061321446
130.258728187
1.77952219942
1.77952217146
1.77952216988
1.77952216984
1.77952216983
1.77952216979
1.77952216984
1.77952217231
1.77952232161
1.77952913292
1.77978407143
1.78727718884
1.95330188661
5.50611075857
130.258718891
1.77951539048
1.77951536063
1.7795153588
1.77951535888
1.77951535852
1.77951535861
1.77951535888
1.77951536067
1.77951551088
1.77952232176
1.7797772658
1.78727049308
1.95329658666
5.50611035912
130.258716458
1.77951524048
1.77951521063
1.77951520894
1.77951520888
1.77951520886
1.77951520887
1.77951520895
1.77951521166
1.77951536079
1.7795221716
1.77977711575
1.78727033842
1.95329625495
5.50610967687
130.258726571
1.77951523767
1.77951520779
1.77951520602
1.77951520564
1.77951520564
1.77951520605
1.77951520613
1.77951520892
1.77951535862
1.7795221693
1.77977711346
1.78727035517
1.95329657012
5.50611052321
130.258726105
1.77951523722
1.77951520766
1.77951520579
1.7795152058
1.77951520589
1.77951520575
1.77951520606
1.77951520888
1.77951535871
1.77952216943
1.77977711368
1.7872703609
1.95329660462
5.50611042243
130.258717547
1.77951523729
1.77951520717
1.77951520555
1.7795152051
1.77951520583
1.77951520594
1.77951520576
1.7795152088
1.77951535784
1.77952216972
1.7797771129
1.78727032575
1.95329627585
5.50610970461
130.258727053
1.77951523894
1.77951520755
1.77951520545
1.77951520503
1.779515205
1.77951520587
1.77951520586
1.77951520887
1.77951535879
1.77952216979
1.77977711367
1.78727036021
1.95329660504
5.50611041412
130.258726884
1.7795152916
1.77951521177
1.77951520605
1.77951520574
1.77951520594
1.77951520597
1.779515206
1.77951520892
1.77951535894
1.77952216958
1.77977711305
1.78727033657
1.95329646077
5.50611014502
130.258726865
1.77951659234
1.77951530941
1.77951521165
1.7795152076
1.7795152076
1.77951520769
1.77951520769
1.77951521061
1.77951536063
1.77952217137
1.77977711245
1.78727030731
1.95329600915
5.50610853383
130.258723383
1.77953361015
1.77951653307
1.77951528668
1.77951523881
1.77951523736
1.77951523761
1.77951523768
1.77951524051
1.7795153905
1.77952219938
1.77977708777
1.78726925026
1.95328341769
5.50604654438
130.25872331
130.258728256
130.258723373
130.25872335
130.258722823
130.258722663
130.258716211
130.258717172
130.258716355
130.258716477
130.258720658
130.258719027
130.258724341
130.258674806
130.256581805
130.250266176
5.50604277421
5.50610338532
5.50610493169
5.5061050573
5.50610470811
5.5061052065
5.50610475755
5.50610483759
5.50610466032
5.50610484735
5.50612675412
5.50726419382
5.55896717209
7.69338864933
130.256581846
1.95328357803
1.9532959911
1.95329654766
1.95329620956
1.95329661206
1.9532966294
1.95329658665
1.95329652101
1.953296706
1.95330197388
1.95350877337
1.95992440145
2.11103919482
5.55896761545
130.258674892
1.78726928226
1.78727031276
1.78727036661
1.78727033553
1.78727037368
1.78727037053
1.78727037126
1.78727035899
1.78727051936
1.78727721566
1.78752858945
1.79494353529
1.95992432882
5.50726464932
130.258716081
1.77977708842
1.77977711264
1.77977711366
1.77977711286
1.779777114
1.77977711392
1.77977711411
1.77977711661
1.77977726684
1.77978407273
1.78003885635
1.78752858009
1.9535086033
5.50612649191
130.258716913
1.77952219824
1.77952217033
1.77952216876
1.77952216871
1.77952216876
1.77952216872
1.77952216875
1.77952217164
1.7795223228
1.77952913293
1.77978407131
1.7872771853
1.9533017688
5.50610557594
130.258725142
1.77951538929
1.77951535947
1.77951535787
1.77951535786
1.7795153585
1.77951535786
1.77951535782
1.77951536071
1.77951551108
1.77952232239
1.77977726571
1.7872704932
1.95329650738
5.50610518919
130.258716384
1.77951523937
1.77951520946
1.77951520785
1.77951520828
1.77951520787
1.77951520775
1.7795152078
1.77951521064
1.7795153608
1.77952217158
1.7797771159
1.78727033933
1.95329625854
5.50610451672
130.258716848
1.77951523689
1.77951520666
1.77951520507
1.77951520571
1.77951520565
1.77951520502
1.77951520498
1.77951520786
1.779515359
1.77952216873
1.77977711147
1.78727030162
1.9532958404
5.50610344463
130.258716948
1.77951523718
1.77951520723
1.77951520565
1.77951520506
1.779515205
1.77951520573
1.77951520503
1.77951520776
1.77951535791
1.77952216867
1.77977711281
1.7872703475
1.95329635392
5.50610472956
130.258719288
1.7795152417
1.77951520776
1.77951520564
1.77951520516
1.77951520492
1.77951520501
1.77951520575
1.7795152078
1.77951535795
1.77952216868
1.77977711222
1.78727032069
1.95329609586
5.50610402771
130.258716557
1.7795154368
1.77951522317
1.77951520641
1.77951520501
1.77951520506
1.77951520492
1.77951520512
1.77951520777
1.77951535801
1.77952216873
1.77977711285
1.78727034889
1.95329639157
5.50610455599
130.258716134
1.77952225662
1.77951574348
1.77951522749
1.77951520632
1.77951520552
1.77951520501
1.77951520501
1.77951520781
1.77951535787
1.77952216955
1.77977711284
1.78727033293
1.95329635413
5.50610501053
130.258716062
1.77969077403
1.77952811907
1.7795157131
1.77951522125
1.77951520757
1.77951520706
1.77951520669
1.77951520947
1.77951535948
1.77952217033
1.77977711167
1.78727029457
1.95329577479
5.50610296
130.258723414
1.78193719993
1.77968337727
1.77952161236
1.77951540782
1.7795152408
1.77951523728
1.77951523685
1.77951523937
1.77951538932
1.77952219822
1.77977708718
1.78726924558
1.95328326784
5.50604110413
130.258725709
130.258732648
130.25872715
130.258718983
130.25872712
130.258727173
130.258715768
130.2587274
130.25871588
130.258715934
130.25872126
130.258716147
130.258715486
130.258665971
130.256572959
130.250259572
5.50604117219
5.50610003058
5.50610373768
5.50610243595
5.50610359412
5.50610347374
5.50610124143
5.50610375946
5.50610296787
5.50610388263
5.506124662
5.50726322781
5.55896623391
7.69338681192
130.256572949
1.95328351036
1.95329558082
1.9532964465
1.95329622458
1.9532965191
1.9532965778
1.95329652091
1.95329623416
1.95329654255
1.95330188294
1.95350865183
1.95992433842
2.11103894802
5.55896637249
130.258666046
1.78726927497
1.7872702778
1.78727035625
1.78727033614
1.78727036303
1.7872703473
1.7872703656
1.78727033549
1.78727050157
1.78727720567
1.7875285808
1.79494352265
1.95992428372
5.50726359372
130.258715341
1.77977708828
1.77977711131
1.7797771134
1.77977711313
1.77977711368
1.77977711291
1.77977711384
1.77977711569
1.77977726633
1.77978407242
1.78003885519
1.78752854577
1.95350826141
5.50612545771
130.258716197
1.7795221982
1.77952217024
1.77952216872
1.77952216866
1.7795221687
1.77952216867
1.77952216871
1.77952217153
1.77952232163
1.77952913321
1.77978407083
1.78727717795
1.95330162675
5.50610362987
130.258720209
1.77951538926
1.77951535944
1.77951535782
1.77951535781
1.77951535877
1.77951535783
1.77951535778
1.77951536073
1.77951551102
1.77952232159
1.77977726561
1.78727049032
1.95329644766
5.50610430331
130.258716834
1.77951523933
1.77951520943
1.7795152078
1.77951520793
1.77951520783
1.7795152077
1.77951520775
1.77951521058
1.77951536081
1.77952217168
1.77977711483
1.78727033183
1.95329620946
5.50610369033
130.258716359
1.779515237
1.77951520664
1.77951520505
1.77951520608
1.77951520597
1.77951520498
1.77951520492
1.77951520778
1.7795153586
1.7795221687
1.77977711236
1.78727033005
1.9532959573
5.50610257449
130.25871648
1.77951524608
1.77951520793
1.77951520576
1.77951520504
1.77951520497
1.77951520595
1.77951520499
1.77951520771
1.77951535789
1.77952216862
1.77977711163
1.7872703146
1.95329595946
5.50610070988
130.258720124
1.77951569771
1.77951524515
1.77951520764
1.77951520527
1.77951520488
1.77951520497
1.77951520599
1.7795152078
1.77951535875
1.77952216863
1.77977711089
1.78727028875
1.95329573651
5.50609947013
130.258716167
1.77953500712
1.77951677961
1.77951527209
1.77951520788
1.77951520526
1.77951520488
1.77951520509
1.77951520772
1.77951535802
1.77952216866
1.7797771117
1.78727031773
1.95329615828
5.50610402712
130.258715727
1.78018095571
1.77956695691
1.77951733951
1.77951526707
1.77951520684
1.779515205
1.77951520497
1.77951520775
1.77951535783
1.77952216977
1.77977711249
1.78727032775
1.95329622728
5.50610416757
130.258715707
1.79555116812
1.78071708421
1.77956387501
1.77951658135
1.77951523756
1.77951520754
1.77951520667
1.77951520942
1.77951535943
1.77952217028
1.7797771105
1.78727026169
1.95329539368
5.50609917299
130.258727184
2.01618596329
1.79489397889
1.78011992054
1.77953209325
1.7795156059
1.77951524389
1.77951523692
1.77951523933
1.77951538928
1.77952219816
1.77977708612
1.7872692228
1.95328311732
5.50604041122
130.258726402
130.25872501
130.25871583
130.258718994
130.258715878
130.258715912
130.258727222
130.258715974
130.258727487
130.258727592
130.25872513
130.258717556
130.258715348
130.258665815
130.256572799
130.250259321
5.50603508929
5.50609919096
5.50610071303
5.50610129707
5.50610011733
5.50609716965
5.50610039643
5.50610103442
5.50610155788
5.50610127465
5.50611685023
5.50726075912
5.55896418681
7.69338348329
130.256572758
1.95328310191
1.95329565012
1.95329592335
1.95329615111
1.95329594305
1.95329634095
1.9532964274
1.95329624599
1.95329646994
1.95330143775
1.9535080103
1.95992418371
2.11103882911
5.55896271261
130.258663603
1.78726925397
1.78727028781
1.78727031811
1.78727033067
1.78727032081
1.78727034787
1.78727035622
1.78727034333
1.78727049735
1.78727716475
1.78752853902
1.79494352264
1.95992407923
5.50726054322
130.258726664
1.77977708808
1.77977711165
1.77977711276
1.77977711328
1.77977711286
1.77977711327
1.77977711362
1.77977711617
1.77977726579