/*--------------------------------*- C++ -*----------------------------------*\
| =========                 |                                                 |
| \\      /  F ield         | OpenFOAM: The Open Source CFD Toolbox           |
|  \\    /   O peration     | Version:  2406                                  |
|   \\  /    A nd           | Website:  www.openfoam.com                      |
|    \\/     M anipulation  |                                                 |
\*---------------------------------------------------------------------------*/
FoamFile
{
    version     2.0;
    format      ascii;
    arch        "LSB;label=32;scalar=64";
    class       volScalarField;
    location    "0.01";
    object      p;
}
// * * * * * * * * * * * * * * * * * * * * * * * * * * * * * * * * * * * * * //

dimensions      [0 2 -2 0 0 0 0];

internalField   nonuniform List<scalar> 
29767
(
0.128727034304
0.128703689177
0.129127344434
0.129016473973
0.12992601606
0.129687721864
0.131229552505
0.130788530951
0.1332444672
0.132475640659
0.136351754169
0.135087814106
0.141241989599
0.139631874313
0.148184971539
0.105622211047
0.105601485523
0.106018031716
0.105915148036
0.106810689611
0.106585669578
0.108110113313
0.107686322163
0.11014939147
0.109382809817
0.113513992076
0.111994436433
0.120045309052
0.116481479068
0.139632794599
0.112755064113
0.112739262458
0.113145541143
0.113054561961
0.113934969384
0.113713895932
0.115238541615
0.114756458522
0.117299918105
0.116225850792
0.12065830867
0.117933481747
0.126715349379
0.120048089766
0.141245803029
0.101785068895
0.1017773125
0.102167762925
0.102100222506
0.102955720313
0.102769061204
0.1042856461
0.103833194548
0.106478510293
0.105379117683
0.110313706759
0.107474953523
0.117936200761
0.111999798232
0.135094151514
0.105392213227
0.105387052606
0.105771107552
0.105707088012
0.106554092924
0.106358654116
0.107873949268
0.107362985387
0.110023453661
0.108729184136
0.113692637592
0.110320154412
0.12066756393
0.113525843275
0.136364591955
0.10001719958
0.100016022587
0.100395744707
0.100343379435
0.101189735681
0.101011038694
0.102547194943
0.102051730081
0.104801807744
0.103514735343
0.108733585567
0.105389874424
0.11623929518
0.10939865182
0.132492381737
0.101458782908
0.101459469371
0.101837431847
0.101785675993
0.102628701719
0.102438994653
0.103975068366
0.103440360511
0.106197988473
0.104811361423
0.110037478137
0.106498858201
0.117323050726
0.110174994545
0.133271030499
0.0986193367971
0.0986218528381
0.0989990506133
0.0989519269709
0.0997983181764
0.0996160242474
0.101169266396
0.100642113116
0.103445756815
0.102066736314
0.107382391396
0.103858878709
0.114784802542
0.107716904542
0.130819917347
0.0991830278955
0.0991866984175
0.0995627660614
0.0995153518533
0.100361189313
0.100172713314
0.101727933807
0.101182032497
0.103993092876
0.102574766073
0.107905878391
0.10432385226
0.115279460232
0.108153445645
0.131273715994
0.097614844148
0.0976194333749
0.0979960305119
0.0979508114723
0.0987997286665
0.0986141279756
0.10017826554
0.0996345645101
0.102462807597
0.101044510391
0.106396428378
0.102813069712
0.11376044658
0.106634394281
0.129737131092
0.0978173934405
0.0978231764399
0.0981991936977
0.0981542959771
0.0990035715076
0.0988158407447
0.100382568154
0.0998324841148
0.102667929952
0.101238424372
0.106606947216
0.103014740841
0.113996565043
0.106874654169
0.129990690029
0.0969697659768
0.0969758403401
0.0973523210339
0.097308178035
0.098159026962
0.0979720156597
0.0995418987371
0.098991578308
0.101830486041
0.100397840979
0.1057656709
0.102164985185
0.113121741112
0.105984434878
0.129086310647
0.0970318468082
0.0970390287851
0.0974151956453
0.0973717962153
0.098223096841
0.0980360308344
0.0996078155489
0.0990566730886
0.101899977307
0.100467448103
0.105846767369
0.10224941891
0.113229624357
0.106104418243
0.12921430674
0.0966586424805
0.0966656861057
0.0970421111322
0.0969987091388
0.0978505841743
0.0976633944772
0.0992358860557
0.0986840545313
0.101526770652
0.100092741592
0.105467808076
0.101864126161
0.112828390465
0.105692643419
0.12879525982
0.0966731774146
0.0966809135179
0.0970571684432
0.0970143332838
0.0978663362686
0.0976794874249
0.0992526361163
0.0987010576805
0.101545323328
0.100112418475
0.105491279196
0.101889864028
0.112862156405
0.105731517624
0.128836779795
0.105914258971
0.105896578939
0.106254391553
0.106166773515
0.106910983745
0.106733588969
0.107921224607
0.107627833424
0.109331406991
0.108904042741
0.111166127277
0.11063102775
0.113157220646
0.112782153499
0.114381242196
0.10345093675
0.103434872452
0.103785536487
0.103703023658
0.104432033172
0.104263357242
0.105426982934
0.105146459772
0.106819384853
0.106410980073
0.108636500593
0.108154543295
0.110817002211
0.110435529231
0.112782840592
0.104190209766
0.104178778927
0.104521462394
0.10445175225
0.105167158446
0.10501387183
0.106164406335
0.105887289839
0.107558434
0.10710105921
0.109394253967
0.108697683768
0.111568512158
0.110819731206
0.113160722139
0.100690612994
0.100686378528
0.101014030951
0.100965094962
0.101654284652
0.101531885889
0.102659207829
0.102413397411
0.104099176377
0.103666045815
0.106090261598
0.105419406821
0.108700787465
0.108159982513
0.110637120749
0.101581724664
0.101580532612
0.101903261107
0.101861070385
0.102543074377
0.102422651143
0.103545799956
0.103279802026
0.104981196003
0.104467731028
0.106937801553
0.106096672603
0.10940391717
0.108648338163
0.111178668679
0.0989480121856
0.0989499443484
0.0992662230184
0.09923213209
0.0999056474546
0.0997994459623
0.100925728788
0.100676978653
0.102411087387
0.101921707202
0.104472332376
0.103676886093
0.107115068321
0.106426912459
0.108920603811
0.0995070471997
0.0995104186334
0.0998246377444
0.0997928999168
0.100465007438
0.100355911855
0.101482326037
0.101215494793
0.102957671122
0.102420515187
0.10499527358
0.104119550516
0.10758207875
0.106845030694
0.109357710001
0.0977217658129
0.097727069119
0.098040832286
0.0980143299569
0.0986870831807
0.098584621819
0.099718199534
0.0994587990468
0.101221148482
0.100691991978
0.103299448052
0.102439162908
0.10591620657
0.105177148329
0.107659137366
0.0980027867751
0.0980090534133
0.0983219172452
0.098295927849
0.0989684386367
0.0988635341131
0.0999991064547
0.0997305583952
0.101500320657
0.100953025896
0.103577779333
0.102697290568
0.106205831542
0.105470243039
0.107965194018
0.0968613410329
0.0968683951324
0.0971816862142
0.097157865671
0.0978320417655
0.0977297461369
0.0988696520634
0.0986031675439
0.100380085644
0.0998329053267
0.102460753136
0.101575960179
0.105061126194
0.104312221017
0.106783061369
0.0969780761128
0.0969859630805
0.0972989590191
0.0972756312806
0.0979502965301
0.0978472885288
0.0989896878721
0.0987206157929
0.100504096396
0.0999538257113
0.1025959389
0.101713033463
0.105229261884
0.104495846114
0.106975524123
0.0963068904972
0.0963149525393
0.0966284329615
0.0966057638334
0.0972815227244
0.097179131821
0.0983232168129
0.0980540105112
0.0998381298755
0.0992864495618
0.101920109887
0.101029899681
0.104519738272
0.10377248025
0.106236833396
0.0963461865145
0.096354958917
0.0966683546719
0.0966462826419
0.0973225992128
0.0972204854941
0.0983666043343
0.0980975750107
0.0998867932393
0.0993371476273
0.101978915101
0.101095272396
0.104606036424
0.103871688433
0.106341280137
0.0960377531316
0.0960463426652
0.0963600948656
0.096337971481
0.0970148266681
0.0969125415279
0.0980591567464
0.0977893829958
0.0995781717065
0.09902659508
0.101661875934
0.100773261794
0.104268803863
0.103526242037
0.105988542685
0.0960483547772
0.0960574467007
0.0963710790203
0.096349421641
0.0970263933803
0.096924486539
0.0980717590661
0.0978024002009
0.0995929772505
0.0990423799857
0.101680717772
0.100794895148
0.104297763282
0.103559939945
0.106024001924
0.10634637341
0.106337620845
0.10670349761
0.106635510623
0.107399864024
0.107254110597
0.108474789557
0.108229035049
0.109973180533
0.109618750244
0.111897725131
0.111489514972
0.114062265596
0.113777171226
0.115614496145
0.104107708846
0.104101270133
0.10446136925
0.10439977256
0.105153546107
0.10501688719
0.106225547595
0.105988070866
0.107730734306
0.107376261438
0.109703880147
0.109262010608
0.112037258448
0.11166989419
0.113777772061
0.104594975146
0.104593701435
0.104943937049
0.104897038608
0.105632278386
0.105516221574
0.106703009209
0.106479434023
0.108213568771
0.107832986034
0.110179148566
0.109640994515
0.112464297712
0.112040240299
0.114065945209
0.101256745909
0.101263808921
0.101599609052
0.101576297022
0.102287047887
0.102205464043
0.10336976598
0.103182428531
0.104925691387
0.104568199085
0.107035936435
0.106482154122
0.10964402627
0.109267649036
0.11149572938
0.101981751065
0.101993250866
0.102321854618
0.102307037226
0.103006279622
0.102931641977
0.104085587453
0.103890345342
0.105631223146
0.105228316318
0.10770255699
0.107043186662
0.110189490137
0.109716772991
0.111911140799
0.0993461836871
0.0993625218064
0.0996877044667
0.0996862769987
0.100381827234
0.100323476619
0.101481024668
0.101300926942
0.103071845487
0.102674440578
0.105232842534
0.104579884896
0.107847662266
0.10739321296
0.10963614712
0.0997927469982
0.099812329339
0.100131395091
0.100132764047
0.100820810396
0.10076383082
0.10191735368
0.101729726097
0.103502525203
0.103082757319
0.105646633849
0.10494829628
0.108239199116
0.107758837148
0.110001644707
0.0979807715156
0.0980023578536
0.0983202075762
0.0983270951547
0.0990156893797
0.0989658639652
0.100125664382
0.0999440300716
0.1017348443
0.10131711131
0.103911011744
0.103210269418
0.106510178286
0.106021055433
0.108262280224
0.0981769968223
0.0982027463502
0.0985171245575
0.0985278136326
0.099213496254
0.0991654007508
0.100325310717
0.10014084215
0.101937344615
0.101511877958
0.104120783423
0.103412076808
0.106748222885
0.106273268324
0.108522633778
0.0970127476264
0.0970389870267
0.0973530879388
0.0973656272399
0.0980521333947
0.0980062852643
0.0991696167121
0.0989858198108
0.100788674544
0.100359551444
0.102972093529
0.102253137389
0.105566689777
0.105069652215
0.107306877661
0.0970707977641
0.0971017839898
0.0974132164199
0.0974301963018
0.0981154807775
0.0980727051028
0.099237650485
0.099054992078
0.100864590644
0.100436185451
0.103064751953
0.102352437888
0.105700354996
0.105224215321
0.107470365656
0.0963869023454
0.0964173011715
0.0967288042727
0.0967457081854
0.0974313532358
0.0973883943975
0.0985543181149
0.098369742235
0.100180108622
0.0997449468755
0.10236992936
0.101646416645
0.104969803276
0.104474928518
0.106710392269
0.0963909075624
0.0964257467223
0.0967350700431
0.0967561089004
0.0974409570923
0.0974012226528
0.0985684711163
0.0983861109262
0.100201548975
0.0997678632728
0.102405842635
0.101690139237
0.105036890249
0.104556971677
0.106798620729
0.0960784618369
0.0961119948688
0.096421691861
0.0964417328478
0.0971267983324
0.0970861039248
0.0982533949393
0.098069187262
0.0998838073325
0.0994451933514
0.102080052777
0.101357731456
0.104690131781
0.104200179008
0.106435991621
0.0960764742167
0.0961127704922
0.0964211885092
0.0964436634125
0.0971281049585
0.0970892626508
0.0982567856542
0.0980739328404
0.0998901291193
0.0994526346407
0.102091875093
0.101372887229
0.104713291047
0.104228700932
0.106466592356
0.0979553423973
0.0979537640265
0.098197400935
0.0981586265806
0.0986465110466
0.0985637428136
0.0992912365575
0.0991594571648
0.100097503352
0.0999264120246
0.100983895393
0.100819970501
0.101782860716
0.101729566497
0.102232814893
0.097592657134
0.0975919272604
0.0978342290475
0.0977991047054
0.0982833996111
0.0982081927992
0.098927952724
0.098810869509
0.0997314822377
0.0995872308307
0.100604970408
0.100482095114
0.101368074247
0.101324477381
0.10173026823
0.0977328674705
0.0977358118319
0.0979709217189
0.09794561836
0.0984169919729
0.0983551851446
0.0990595940556
0.0989545487814
0.0998636009603
0.0997212397761
0.100740242708
0.100605155817
0.101476371319
0.101370754398
0.101786467016
0.0969422325313
0.0969499602161
0.0971760034419
0.0971651206059
0.097619411221
0.097579774433
0.0982621456535
0.0981829306499
0.0990685243347
0.0989501567765
0.0999387348103
0.0998185635447
0.100608519904
0.10048770374
0.10082640022
0.0970874273608
0.0970982461787
0.0973191989143
0.0973152838231
0.0977613216345
0.0977300123756
0.0984041074242
0.098329815843
0.0992121743013
0.0990885941414
0.100082964683
0.0999455818805
0.100750699831
0.100617406678
0.100997336786
0.0960895266899
0.0961027008186
0.0963196732809
0.0963229507035
0.0967616736376
0.0967408930732
0.0974069969095
0.0973440701899
0.0982201965979
0.0981069248194
0.09909379784
0.098961957174
0.0997365497772
0.0996042312906
0.0999443416166
0.0962157813892
0.0962311792625
0.0964456247723
0.0964527184278
0.0968882638052
0.0968709402752
0.0975346749965
0.0974716732788
0.0983490051047
0.098230434063
0.099227809443
0.0990906894891
0.09988955479
0.0997590049669
0.100126212816
0.0953389220498
0.0953551751629
0.0955686285812
0.0955789650211
0.0960125466376
0.0959996538573
0.0966615773371
0.0966025930641
0.0974781364775
0.0973606193774
0.0983517278289
0.0982111453153
0.0989864258067
0.098844071477
0.0991937668562
0.0954060445863
0.0954240891117
0.0956362747523
0.0956491155598
0.0960815947822
0.0960709647254
0.0967332599998
0.0966751775395
0.09755484934
0.09743714515
0.0984397825157
0.0983039711565
0.0991053597499
0.0989749561204
0.0993397001745
0.0947485640166
0.0947665559048
0.0949790863296
0.0949929229892
0.0954254530982
0.095416083768
0.0960780369903
0.09602024643
0.0968980797154
0.0967779033928
0.097772489927
0.0976282121947
0.0984074166997
0.0982614159378
0.0986183301119
0.0947703492415
0.0947897333429
0.0950016647519
0.0950173657394
0.0954497455443
0.0954423875596
0.0961056809067
0.0960499325824
0.0969322780385
0.0968152448223
0.0978204958929
0.0976842473561
0.0984859154022
0.0983531732792
0.0987180636039
0.0943441599527
0.0943629779348
0.0945757833789
0.0945912902748
0.0950243800873
0.0950167433975
0.0956800662996
0.095623165124
0.0965034929041
0.0963832611601
0.0973811126639
0.0972364948526
0.0980209148013
0.0978750452158
0.0982361932205
0.0943465795411
0.0943663877998
0.0945788068263
0.0945956771146
0.0950287160134
0.0950227331635
0.0956871061973
0.0956322421524
0.0965158530092
0.0963988868325
0.0974040232898
0.0972659029984
0.0980650184718
0.0979287646744
0.0982940384312
0.0941405935238
0.0941595034469
0.0943729829443
0.0943890313746
0.0948230048034
0.0948161472767
0.0954808566617
0.0954246928495
0.0963072490028
0.0961878487041
0.0971889016721
0.0970456898934
0.0978355533409
0.0976919817139
0.0980556902076
0.0941424643418
0.0941623392027
0.0943751242491
0.0943922859886
0.0948256687914
0.0948199401386
0.0954845639444
0.0954295387858
0.0963129435687
0.0961949978947
0.0971984536465
0.0970577060876
0.097852597431
0.0977124384661
0.0980775185005
0.0983535375335
0.0983683739919
0.0986121060504
0.0986042720358
0.0990989350474
0.0990622483569
0.0998007763022
0.0997323156534
0.100679096477
0.100589065029
0.101640782374
0.101564788443
0.102495412508
0.102490918195
0.102928459804
0.0980605633302
0.0980766043697
0.0983174242491
0.098313704567
0.0988025782793
0.0987726075159
0.0995031499418
0.0994432769472
0.1003810838
0.100300394725
0.101342363702
0.101275647731
0.102183521118
0.102173857514
0.102491655286
0.098041965072
0.0980631121408
0.0982965631582
0.098305190213
0.0987813754654
0.098769398848
0.0994845831125
0.0994455177686
0.100369669613
0.100310189444
0.101343224403
0.101309122892
0.102199733826
0.102186922239
0.102499744674
0.097138770323
0.0971661270818
0.0973880647463
0.0974139519386
0.0978692450905
0.0978836844248
0.0985724993041
0.0985649769689
0.0994644885068
0.0994352650903
0.100454882594
0.100438826079
0.101312797417
0.101282222018
0.101572167625
0.0971162775555
0.0971519000456
0.097365835435
0.0974047068762
0.0978497645352
0.0978795568818
0.0985582427376
0.0985656225598
0.0994587220402
0.0994420480114
0.100463261301
0.100463427212
0.101355627658
0.101357489817
0.101656805161
0.0960900254693
0.0961282399224
0.096336672133
0.0963837343115
0.096819183754
0.0968612974243
0.0975293068836
0.0975502155981
0.0984356749687
0.0984289603925
0.0994473930661
0.0994489963585
0.100327661151
0.100320247754
0.100609736311
0.0960720321361
0.0961218136954
0.0963221618084
0.0963828575767
0.096810772787
0.0968661252209
0.0975285746833
0.0975607606721
0.0984460605879
0.0984490966995
0.0994775005126
0.0994915147845
0.100400586813
0.100414388525
0.100713340775
0.0951977127571
0.0952469095084
0.095444979222
0.095507914497
0.0959318272335
0.0959916907389
0.0966496398339
0.0966855169881
0.0975661872879
0.0975693404419
0.0985901369334
0.0985977450571
0.0994821369854
0.0994819865389
0.0997718632801
0.0951402089472
0.0952055367399
0.0953940270655
0.0954735359748
0.0958910000066
0.0959656599645
0.0966214603213
0.0966697609424
0.0975536661969
0.0975673842334
0.0986015870572
0.0986235264973
0.0995394995058
0.0995601128955
0.0998587376768
0.0944983871023
0.0945597710963
0.0947481033458
0.0948253920105
0.0952409262572
0.0953148643391
0.0959678017585
0.0960152659947
0.096894803354
0.0969039216439
0.0979276310099
0.0979398388285
0.0988295059586
0.098834566988
0.0991250654295
0.0944178524346
0.0944995844091
0.094676431793
0.0947730852249
0.095181817119
0.0952718557967
0.0959228888983
0.0959830640449
0.096866667357
0.0968867386886
0.097922521465
0.0979486306603
0.0988645559562
0.0988873721202
0.099184781012
0.0940132908839
0.0940877785611
0.0942663552461
0.094357507686
0.0947657757158
0.0948521530719
0.0955013161872
0.0955581825645
0.0964380880902
0.0964529011983
0.0974794640402
0.0974965324175
0.0983918037053
0.0984019285005
0.0986933688267
0.093942276989
0.0940378400134
0.0942046305449
0.0943145563105
0.0947159049644
0.0948167750486
0.0954635057374
0.0955310835363
0.0964130904777
0.0964367985697
0.0974712243768
0.0974984412945
0.0984105994778
0.0984325090165
0.0987282908947
0.093756438114
0.0938428595666
0.094012996093
0.0941160402682
0.0945184616523
0.0946148328581
0.0952611506817
0.0953253911295
0.0962054369716
0.0962254317746
0.097254925899
0.097276534968
0.0981776777927
0.0981925367304
0.0984851950668
0.093726438302
0.0938271411778
0.0939894519717
0.0941040432727
0.0945016413215
0.094606026228
0.0952500105385
0.0953195648633
0.0961994347843
0.0962233342901
0.0972550473456
0.0972805770382
0.0981872778746
0.098206316622
0.0985004277157
0.0928258864212
0.0928385118873
0.0929863498926
0.0929858121715
0.0932713208313
0.0932551350679
0.0936554726917
0.0936237833321
0.0940948020364
0.0940553483796
0.0945221616124
0.0944946923441
0.0948511170761
0.0948609301337
0.0950022849203
0.0927832910112
0.0927964675742
0.0929431848242
0.092944704916
0.0932278732324
0.0932149799874
0.0936117846729
0.0935841468354
0.0940498170572
0.0940143349944
0.0944711187888
0.0944470893837
0.0947791165109
0.0947814554761
0.0948617732169
0.0928272855422
0.0928429426855
0.0929849769201
0.092992881912
0.0932671083619
0.0932636947231
0.0936481100178
0.0936317957101
0.0940832856917
0.0940601113358
0.0945037356897
0.0944942790262
0.0948052881144
0.0947820881208
0.0948551870305
0.0926094908562
0.0926278436049
0.0927644764945
0.0927811417191
0.0930446768719
0.0930546462186
0.0934233927271
0.0934226040198
0.0938524710162
0.0938422935362
0.0942526040315
0.0942475850885
0.0944984924735
0.0944536897529
0.0945022766942
0.0925992222332
0.0926212196127
0.0927539891634
0.0927776520765
0.0930345211594
0.0930540350027
0.0934146644269
0.0934244222385
0.0938471282487
0.0938472506829
0.0942543286654
0.0942604206899
0.0945161258798
0.0944856633544
0.0945378074601
0.0922213688573
0.0922439171804
0.092375081653
0.0924028906958
0.0926554261118
0.0926814762262
0.0930349649787
0.0930511510601
0.0934629455861
0.093466250709
0.0938540774099
0.0938564767253
0.0940787369385
0.0940346637088
0.0940767122187
0.0922042625645
0.0922304366391
0.092358895453
0.0923924374822
0.0926418886041
0.0926753340116
0.0930269778623
0.0930513615679
0.0934630936397
0.0934746280692
0.093866085618
0.093878687664
0.0941143706855
0.0940825697192
0.0941287438049
0.091806569602
0.0918316185996
0.0919612556594
0.0919954948768
0.0922443298102
0.0922791389405
0.0926278991467
0.0926537433361
0.0930602745324
0.0930712307461
0.0934516879958
0.0934566810414
0.0936705118243
0.0936242005522
0.0936649268739
0.0917812983063
0.0918087480206
0.0919371207803
0.09197560876
0.0922229089538
0.0922633433169
0.092611280631
0.0926434341388
0.0930520396995
0.0930709259447
0.093458266013
0.0934735170996
0.0937033072454
0.0936683265718
0.0937132862908
0.0914413084691
0.0914671279502
0.0915985850441
0.0916361511476
0.0918859703162
0.0919256568617
0.0922739072881
0.0923044915356
0.0927100744055
0.0927265910435
0.0931066086033
0.0931133604809
0.0933272339597
0.0932795373369
0.0933208396576
0.0914154424577
0.0914413125273
0.0915727245578
0.0916124007876
0.0918615893508
0.0919053311342
0.0922536700032
0.0922895398125
0.092697119096
0.0927203830578
0.0931073616299
0.0931230470062
0.0933507000862
0.0933124100295
0.0933572079266
0.0911734574352
0.0911980094094
0.0913332730351
0.0913713287106
0.0916244360387
0.0916661681972
0.0920168978361
0.0920502819816
0.0924569179579
0.0924766608085
0.0928590222338
0.0928678001485
0.0930845555715
0.0930370458233
0.0930793512554
0.0911594863593
0.091181556026
0.0913173722533
0.0913555973278
0.091607951753
0.0916522532031
0.0920025539824
0.0920397888357
0.0924475968843
0.0924720266135
0.0928588683617
0.0928737155226
0.0930994560297
0.0930581810194
0.0931027433462
0.0910354357188
0.091055995562
0.0911961698005
0.0912317734208
0.0914887503242
0.0915301202157
0.0918835757875
0.0919181361363
0.0923267218805
0.0923482010473
0.0927330759819
0.0927440546553
0.0929642178176
0.0929180932378
0.0929613602154
0.091037875929
0.0910578576527
0.0911959384195
0.0912331934735
0.0914872391072
0.0915312938776
0.0918824554433
0.091919655823
0.0923272220687
0.0923510856014
0.09273664741
0.0927500805487
0.0929729922072
0.0929291211102
0.0929731185088
0.0926689604463
0.0927063895071
0.0928445619654
0.0928819648612
0.093162254129
0.0931949021062
0.0935940992938
0.0936189118825
0.0940920074862
0.0941110353238
0.0945815479953
0.0946032904308
0.0949616394353
0.0949937609912
0.0951268605829
0.0926183208375
0.0926558802319
0.0927926145494
0.09283187324
0.0931088818397
0.0931449609901
0.0935393900303
0.0935687373532
0.0940359042631
0.0940598265406
0.0945221711781
0.0945485603358
0.0948897927399
0.0949177370665
0.0949948329323
0.0925677715397
0.0926127216439
0.0927424377741
0.0927936198774
0.0930608865347
0.0931122004818
0.093495135548
0.0935418201276
0.0939975524945
0.0940406581353
0.094494486551
0.0945458424853
0.0948779411187
0.0948937141496
0.0949669111479
0.0922839615034
0.0923316061502
0.0924536776117
0.0925142122771
0.0927671816567
0.0928337974515
0.0931975397315
0.0932632557345
0.0936972514232
0.0937592799234
0.0941884803642
0.0942523141651
0.094551056641
0.0945569055135
0.0946128226594
0.0921320410894
0.0922003570113
0.0923090994604
0.0923937481695
0.0926351004145
0.0927261853591
0.0930807058413
0.0931693356731
0.093597376221
0.0936814351701
0.0941109323395
0.0941984985172
0.0945102397924
0.0945407838804
0.0946015217698
0.0917467790849
0.0918100067623
0.0919169605699
0.0920006174197
0.0922357086652
0.0923299347631
0.0926750907715
0.0927699223033
0.0931861766276
0.0932760419703
0.093689297853
0.0937766058256
0.0940635654475
0.0940849989041
0.0941374617659
0.0915622978931
0.0916634615952
0.0917477545353
0.0918696338311
0.0920888587804
0.0922169898245
0.0925526766277
0.0926753516418
0.0930889250822
0.0932021896168
0.0936218712503
0.0937307551853
0.094037211649
0.0940776775783
0.0941352885798
0.0912059924277
0.0912915592879
0.091379426745
0.0914895763688
0.0917066638963
0.0918283906113
0.0921583035367
0.0922782931093
0.0926834157708
0.0927939500659
0.0932018533098
0.0933045408392
0.0935892078664
0.0936177918261
0.0936693418126
0.0909834818723
0.0911315109118
0.0911825280059
0.0913506516761
0.0915441815051
0.0917122432632
0.0920302750355
0.0921845550414
0.0925873194602
0.092723396563
0.0931383626619
0.0932620225157
0.0935662562355
0.0936117030174
0.0936681348826
0.0907284199408
0.0908443974209
0.0909073288318
0.0910504932232
0.0912464180928
0.0913983414377
0.0917131538513
0.0918579732171
0.0922547447992
0.0923834520399
0.0927889608396
0.092904450763
0.0931896278673
0.093223454161
0.0932749188893
0.090481295321
0.0906889377298
0.0906984300373
0.0909209207972
0.0910843960334
0.0912946340493
0.0915927652865
0.0917766477944
0.0921686465028
0.0923237858447
0.0927338153748
0.0928688810692
0.0931697281634
0.0932175378572
0.0932728824291
0.090353636535
0.0905103656882
0.0905407938273
0.0907252571538
0.090896555358
0.0910836636576
0.0913821837453
0.0915523617684
0.0919409803036
0.0920872370759
0.092490656003
0.0926178146629
0.0929047748497
0.0929434782304
0.0929952562376
0.0901286305008
0.0903961183211
0.0903625487529
0.0906353933615
0.0907686479925
0.0910146728967
0.091294070225
0.0915001468827
0.091881670745
0.0920499121344
0.0924545407965
0.0925965384322
0.0928929049121
0.0929410616454
0.0929952243429
0.0901137612555
0.0903196359751
0.090312831501
0.0905438542307
0.0906891978045
0.0909116163986
0.09119529453
0.0913886429471
0.0917700904934
0.0919311306726
0.0923329167699
0.0924695894474
0.092759037133
0.0928020739339
0.0928544125077
0.0899940449254
0.0902872061146
0.0902314744944
0.090522869448
0.0906401408546
0.0908977539149
0.0911668452995
0.091379365883
0.0917541602153
0.0919256593883
0.0923257073741
0.0924685518323
0.0927603094315
0.0928068648075
0.0928599058849
0.0882345709912
0.0882582848193
0.0883450997832
0.0883706736543
0.088531766735
0.088555864147
0.0887703611991
0.0887902112107
0.0890260609305
0.0890415529145
0.0892564827549
0.0892711630089
0.0894197054339
0.0894371728089
0.089489578568
0.088228062844
0.0882517346859
0.0883382590914
0.0883646428832
0.0885246338464
0.0885501625858
0.0887627722722
0.0887843020227
0.0890173242792
0.0890343129801
0.0892446567281
0.089260419974
0.089399084961
0.0894118811182
0.089438424399
0.088239181378
0.0882649712602
0.0883488621326
0.0883795769321
0.088535173367
0.0885667189386
0.0887736796245
0.0888021299728
0.0890288962508
0.0890529102805
0.0892566469277
0.0892805202461
0.0894062000305
0.0894023960809
0.0894245811763
0.0881571758861
0.0881831599231
0.0882662291754
0.0883008807603
0.0884524155856
0.0884905351002
0.0886901413189
0.0887260877099
0.0889418759403
0.0889721934021
0.0891603926879
0.089186150914
0.0892865033828
0.0892689506747
0.0892811270977
0.0881063654547
0.0881376919529
0.0882170224011
0.0882595180401
0.0884068613444
0.0884544973458
0.088649764124
0.0886958999402
0.0889079800929
0.0889481094285
0.0891341986214
0.0891692375356
0.0892721210063
0.0892623646135
0.0892758089267
0.087938356724
0.0879662377555
0.0880504793145
0.0880925453081
0.0882423141947
0.0882915979043
0.0884857466863
0.0885340101484
0.0887408319598
0.0887818394735
0.0889584421524
0.0889903541015
0.0890775585886
0.0890604845046
0.089069281945
0.0878734922638
0.0879064809836
0.0879878122518
0.0880376475905
0.0881848390338
0.0882441347493
0.0884363582176
0.0884955680663
0.0887018926437
0.0887533963238
0.088932255639
0.0889737865444
0.0890681492002
0.0890580476056
0.0890685908541
0.0876686336522
0.0876964728975
0.0877878695464
0.08783476594
0.0879907849413
0.0880481423202
0.0882460591823
0.088303691537
0.0885107628422
0.0885599667075
0.0887332745788
0.0887699312493
0.0888530307239
0.0888359357776
0.0888435571442
0.0876087599965
0.0876332220421
0.0877266493833
0.0877757208157
0.087931871097
0.0879965854712
0.0881938045401
0.0882617251585
0.0884696510608
0.0885293212993
0.0887064292734
0.088752684558
0.0888442378576
0.0888339750994
0.0888435890868
0.0874015819877
0.0874273255837
0.0875317923491
0.0875794096375
0.0877487041029
0.0878102250685
0.088018220334
0.0880819902846
0.0882949819706
0.0883505408099
0.088525824973
0.0885664670754
0.0886502396061
0.0886335885567
0.0886411565913
0.0873763538288
0.0873783939619
0.0874938727974
0.0875310845811
0.0877029211171
0.0877663773382
0.087974521119
0.0880458809461
0.0882594807798
0.0883240436262
0.0885027141196
0.0885517447151
0.0886429283323
0.0886320902646
0.0886414244951
0.0871941460787
0.0872099051861
0.0873347491683
0.087374785099
0.087562855801
0.0876215430845
0.0878432016113
0.0879091821499
0.0881303842835
0.0881898823053
0.0883697179699
0.0884134601804
0.0885000345433
0.0884841534879
0.0884921601635
0.0872257160344
0.0871896725302
0.0873354839803
0.08735056098
0.0875434022446
0.0875981570525
0.0878183608557
0.0878894221219
0.0881091166621
0.0881754254243
0.0883563057405
0.088406177282
0.0884972136884
0.0884853213061
0.0884944493138
0.0871054447549
0.0870890681702
0.0872440881217
0.0872595028523
0.087470633499
0.0875172129704
0.087752093634
0.0878152972753
0.0880439225991
0.0881045123614
0.0882886387012
0.0883342590853
0.0884238941339
0.0884089728861
0.0884175223569
0.0871704721941
0.0871065846482
0.0872667360526
0.0872695610415
0.0874739065798
0.0875237207657
0.0877502294727
0.0878196297608
0.0880421742603
0.0881079009366
0.0882893848779
0.0883383000857
0.0884282122797
0.0884149608018
0.0884237259033
0.0875179797103
0.0875765844449
0.0876456282802
0.0877161762583
0.087865391747
0.0879405108625
0.0881491237644
0.0882213295437
0.0884571243237
0.0885207828726
0.0887405736965
0.088792176851
0.0889473194248
0.088982614454
0.0890350268413
0.0875096229339
0.0875663034263
0.0876355156395
0.087705208251
0.0878531389987
0.0879285803319
0.0881348584654
0.0882082992657
0.0884410641252
0.0885063614371
0.0887222560216
0.0887754710065
0.088923826298
0.0889554344751
0.088984390176
0.0874413941295
0.0875143986558
0.087572769254
0.0876605743298
0.0877988985583
0.0878919866937
0.0880898807922
0.0881792994111
0.0884052196261
0.0884847801887
0.088696320589
0.0887638329688
0.0889081239181
0.088928028692
0.0889536270397
0.0873532908127
0.087418545119
0.0874763046458
0.0875615454898
0.0876930274921
0.0877891704071
0.0879761145654
0.0880726177911
0.0882854911997
0.0883734089477
0.0885708386602
0.088644326317
0.0887720283203
0.0887866550844
0.0888052785153
0.0871155529466
0.0872401345574
0.0872629107967
0.087406178885
0.087514165077