/*--------------------------------*- C++ -*----------------------------------*\
| =========                 |                                                 |
| \\      /  F ield         | OpenFOAM: The Open Source CFD Toolbox           |
|  \\    /   O peration     | Version:  2406                                  |
|   \\  /    A nd           | Website:  www.openfoam.com                      |
|    \\/     M anipulation  |                                                 |
\*---------------------------------------------------------------------------*/
FoamFile
{
    version     2.0;
    format      ascii;
    arch        "LSB;label=32;scalar=64";
    class       surfaceScalarField;
    location    "0.01";
    object      phi;
}
// * * * * * * * * * * * * * * * * * * * * * * * * * * * * * * * * * * * * * //

dimensions      [0 3 -1 0 0 0 0];

oriented        oriented;

internalField   nonuniform List<scalar> 
86705
(
-4.43621796344e-08
1.31240029456e-06
0.000887608687218
-8.47356074656e-08
1.31151845266e-06
0.000887610633088
-1.32750347893e-07
1.31357522991e-06
0.000887613551025
-1.75536112968e-07
1.31089851574e-06
0.000887602998865
-2.36700061659e-07
1.31499761216e-06
0.000887643944364
-2.86981991303e-07
1.31077804784e-06
0.000887610615517
-3.74093658941e-07
1.31565139289e-06
0.000887642571914
-4.40898906732e-07
1.31210947658e-06
0.00088765247382
-5.7694307225e-07
1.31009462738e-06
0.000887697061192
-6.81363160731e-07
1.31908049051e-06
0.000887656451263
-8.94147659349e-07
1.26646143479e-06
0.00088784410113
-1.10256587151e-06
1.35498024552e-06
0.000887724549642
-1.33849396408e-06
1.02377248534e-06
0.000888083267277
-1.94356274839e-06
1.64498938643e-06
0.000887857857458
1.94317730389e-06
0.000884984371583
-3.19853832572e-08
1.23544296231e-06
0.000889012873675
-6.22332722264e-08
1.23463623122e-06
0.000889015575297
-9.5425266565e-08
1.23649684417e-06
0.000889016048879
-1.29118803234e-07
1.23416489785e-06
0.00088900820551
-1.70198764873e-07
1.23770675649e-06
0.000889042816384
-2.12261066227e-07
1.23446993651e-06
0.000889016148791
-2.70754264267e-07
1.23829786157e-06
0.00088903362512
-3.30705524994e-07
1.23711384682e-06
0.000889059392495
-4.30775179982e-07
1.23608360338e-06
0.000889071859095
-5.29721771778e-07
1.24770964708e-06
0.000889068095866
-7.46987015467e-07
1.21946946463e-06
0.000889188702851
-9.29864727214e-07
1.2886839663e-06
0.000889146952438
-1.5302007497e-06
1.13686718621e-06
0.000889385019772
-1.64533374265e-06
1.52959730539e-06
0.000889154970705
1.33774297345e-06
0.000887857878735
-3.18467649975e-08
8.76972464575e-07
0.000889267561603
-6.24039453546e-08
8.76357706467e-07
0.000889270614082
-9.47946241437e-08
8.7758154063e-07
0.000889270417749
-1.29176060171e-07
8.75892361835e-07
0.000889263765829
-1.68292658447e-07
8.77945260886e-07
0.00088929665636
-2.11128540905e-07
8.75788413952e-07
0.000889272629281
-2.6483114978e-07
8.76930143315e-07
0.000889286182216
-3.23917530612e-07
8.76571927335e-07
0.000889317406601
-4.0929927441e-07
8.71738223093e-07
0.000889320839037
-4.97654693729e-07
8.79483466256e-07
0.000889327693523
-6.57260615407e-07
8.51971755461e-07
0.000889424881965
-7.84801256284e-07
8.85469224442e-07
0.000889401867329
-1.13752524851e-06
7.83869007563e-07
0.000889576834159
-1.0241536977e-06
9.28971512382e-07
0.000889385032603
1.10141598552e-06
0.000888083285008
-3.19368054314e-08
7.02500088961e-07
0.000889083640264
-6.26110908533e-08
7.02051982772e-07
0.000889086758328
-9.51690557189e-08
7.02815912058e-07
0.000889086435295
-1.29869279649e-07
7.01686001173e-07
0.000889080018374
-1.69596949577e-07
7.0281437433e-07
0.000889112636754
-2.13454330097e-07
7.01616227449e-07
0.000889089141376
-2.69442497463e-07
7.01680387788e-07
0.000889102349744
-3.32045437366e-07
7.02276021864e-07
0.000889134677079
-4.249676839e-07
6.97562683042e-07
0.000889138209633
-5.26011275942e-07
7.04357146519e-07
0.000889147281769
-7.08543194783e-07
6.85359522155e-07
0.000889246922418
-8.86406813187e-07
7.07321388147e-07
0.000889227123346
-1.2893425794e-06
6.56046060086e-07
0.00088940187066
-1.35535500434e-06
7.45795638124e-07
0.000889146966661
8.92604604019e-07
0.000887724568103
-3.18490096336e-08
5.2619938891e-07
0.000889112034623
-6.23569052813e-08
5.25857851026e-07
0.00088911514705
-9.48071225803e-08
5.26255026083e-07
0.000889114789427
-1.29155325126e-07
5.25463145841e-07
0.000889108349228
-1.68658122004e-07
5.25867165055e-07
0.000889140895387
-2.11654748778e-07
5.2511729882e-07
0.000889117273748
-2.66884125216e-07
5.24312479366e-07
0.00088913037549
-3.27243442606e-07
5.24913005255e-07
0.000889162167751
-4.17655222505e-07
5.20287863838e-07
0.000889165464828
-5.13053779774e-07
5.24845205481e-07
0.000889172688737
-6.86581752317e-07
5.11560889375e-07
0.000889271772056
-8.52909021549e-07
5.2451882009e-07
0.00088924690811
-1.220124108e-06
4.96169564209e-07
0.000889424869922
-1.26683220843e-06
5.28251753377e-07
0.000889188697543
6.79457973568e-07
0.000887844092541
-3.20602215527e-08
4.26794080893e-07
0.00088900866446
-6.2731568598e-08
4.26530597794e-07
0.000889011776894
-9.55082451687e-08
4.26716737889e-07
0.000889011426637
-1.3009534194e-07
4.26165836672e-07
0.000889004996167
-1.70283600555e-07
4.26227621271e-07
0.000889037605975
-2.13870070686e-07
4.25799399434e-07
0.000889014016155
-2.70715027328e-07
4.24856605159e-07
0.00088902741263
-3.32730450426e-07
4.25466679066e-07
0.00088905923996
-4.26647505438e-07
4.21793085323e-07
0.000889063523653
-5.26339280158e-07
4.24885123386e-07
0.000889070763687
-7.05573726904e-07
4.15897898496e-07
0.000889172675677
-8.80408087636e-07
4.23210375469e-07
0.000889147254671
-1.24834642677e-06
4.07551291567e-07
0.000889327668543
-1.31943714512e-06
4.29038313513e-07
0.000889068082517
5.7469102992e-07
0.000887656441521
-3.20040004343e-08
3.32954021415e-07
0.000889003023352
-6.2554574183e-08
3.32741536969e-07
0.000889006117914
-9.52846656272e-08
3.32784142755e-07
0.000889005774347
-1.29677807995e-07
3.32368945568e-07
0.000888999301786
-1.69788900969e-07
3.3219385612e-07
0.000889031923025
-2.12951243502e-07
3.31879721704e-07
0.000889008193803
-2.69473628483e-07
3.30889519326e-07
0.000889021601268
-3.30567162058e-07
3.3132588848e-07
0.000889053012531
-4.23549527394e-07
3.28570253453e-07
0.00088905731701
-5.21776007073e-07
3.30728787611e-07
0.000889063494636
-6.98774567243e-07
3.25250891998e-07
0.000889165423798
-8.72654837937e-07
3.30050028389e-07
0.000889138152474
-1.23671402504e-06
3.2193788336e-07
0.000889320784519
-1.31045027231e-06
3.28739544546e-07
0.000889071813363
4.38342215858e-07
0.000887697010252
-3.21385285203e-08
2.70897110905e-07
0.000888998027306
-6.27932094088e-08
2.70721081457e-07
0.00088900112012
-9.57235152345e-08
2.706997121e-07
0.000889000793024
-1.30285227428e-07
2.70389373012e-07
0.000888994319428
-1.70790561042e-07
2.70150815263e-07
0.000889026993736
-2.14317500882e-07
2.69919410407e-07
0.000889003265431
-2.71540269229e-07
2.69052529207e-07
0.000889016837953
-3.33330105844e-07
2.69302407702e-07
0.000889048258721
-4.27226277014e-07
2.67246411885e-07
0.000889052998221
-5.26400408002e-07
2.68484799744e-07
0.000889059196331
-7.03482646878e-07
2.64667061936e-07
0.000889162111489
-8.7748308657e-07
2.67222239587e-07
0.000889134606473
-1.23773207178e-06
2.62626560173e-07
0.000889317338621
-1.31244879979e-06
2.68565233915e-07
0.000889059336577
3.71249574354e-07
0.000887652421947
-3.21847180955e-08
2.1330363598e-07
0.00088896691386
-6.28248923594e-08
2.13155525705e-07
0.000888969983971
-9.57722578612e-08
2.13097509437e-07
0.000888969661198
-1.30269095305e-07
2.12853506878e-07
0.000888963144433
-1.70758427764e-07
2.12597813427e-07
0.000888995820485
-2.14144429269e-07
2.12415399164e-07
0.000888972001784
-2.71278765764e-07
2.11720521162e-07
0.000888985578132
-3.32880152046e-07
2.11886640292e-07
0.00088901679535
-4.26602142446e-07
2.10534275393e-07
0.000889021545927
-5.25788256133e-07
2.11453444574e-07
0.000889027329272
-7.02878817813e-07
2.09255333377e-07
0.000889130280501
-8.77840589446e-07
2.11054669771e-07
0.000889102241174
-1.23892227119e-06
2.08745124357e-07
0.000889286075018
-1.31599518447e-06
2.09894103513e-07
0.00088903352237
2.83905854987e-07
0.00088764246023
-3.22917779511e-08
1.69502603703e-07
0.000888953215307
-6.30160132776e-08
1.69375140976e-07
0.000888956282834
-9.60866940549e-08
1.69308831342e-07
0.000888955970964
-1.30682561616e-07
1.69109998751e-07
0.000888949451085
-1.713380578e-07
1.68873909508e-07
0.000888982157533
-2.14854216977e-07
1.68706793217e-07
0.000888958336521
-2.72157093605e-07
1.68145251873e-07
0.000888971989919
-3.338777259e-07
1.68176640305e-07
0.000889003208816
-4.27547674557e-07
1.67191711747e-07
0.0008890081243
-5.26590288895e-07
1.67690214462e-07
0.000889013917636
-7.0280546005e-07
1.66085973261e-07
0.00088911716273
-8.76682513341e-07
1.67026869533e-07
0.000889089016675
-1.23507125213e-06
1.65739381333e-07
0.000889272506371
-1.3111002279e-06
1.67662457682e-07
0.000889016038938
2.33406964542e-07
0.000887610510352
-3.23544353122e-08
1.28540871221e-07
0.000888977075515
-6.30937929859e-08
1.28438928875e-07
0.000888980120475
-9.61990780997e-08
1.28378442539e-07
0.000888979813893
-1.30798305893e-07
1.28227758385e-07
0.000888973259553
-1.71487673811e-07
1.28039663316e-07
0.000889005968925
-2.15012451028e-07
1.27915822501e-07
0.000888982093884
-2.723595886e-07
1.27522308948e-07
0.000888995748236
-3.3416216125e-07
1.27545075409e-07
0.000889026879506
-4.27947576493e-07
1.26956566788e-07
0.000889031798735
-5.27316846588e-07
1.27381576926e-07
0.000889037456089
-7.03986620944e-07
1.26466450873e-07
0.000889140734686
-8.78831865722e-07
1.27185838582e-07
0.000889112464488
-1.23831007303e-06
1.26510975985e-07
0.000889296484893
-1.31532316788e-06
1.26473729123e-07
0.00088904264733
1.72099756941e-07
0.000887643762121
-3.24163806707e-08
9.36953674899e-08
0.000888944345839
-6.32026557493e-08
9.36133211352e-08
0.000888947390042
-9.63654088088e-08
9.35633860905e-08
0.000888947089362
-1.31004561787e-07
9.34447875304e-08
0.000888940533783
-1.71741218156e-07
9.32972800632e-08
0.000888973257126
-2.15283011365e-07
9.31882794185e-08
0.00088894938105
-2.72610116841e-07
9.2895783617e-08
0.000888963065367
-3.34344949623e-07
9.28628273411e-08
0.000888994195233
-4.27888988108e-07
9.24453886155e-08
0.00088899916698
-5.2691040336e-07
9.26812392565e-08
0.000889004833525
-7.02848785833e-07
9.20081411424e-08
0.000889108174873
-8.76761649014e-07
9.23789381127e-08
0.00088907983157
-1.23474309815e-06
9.20234489808e-08
0.00088926358085
-1.31119982858e-06
9.26740170125e-08
0.000889008034741
1.29178583309e-07
0.000887602833018
-3.2470317406e-08
6.03776750612e-08
0.000888950846546
-6.32749982981e-08
6.03244951882e-08
0.000888953871659
-9.64676866011e-08
6.0291238515e-08
0.000888953576358
-1.3112597397e-07
6.02178214303e-08
0.00088894699681
-1.71899641036e-07
6.01262156533e-08
0.000888979722957
-2.15480380219e-07
6.00630063264e-08
0.000888955817627
-2.72869592519e-07
5.98937430241e-08
0.000888969502893
-3.34710424183e-07
5.98853320826e-08
0.000889000596628
-4.28393477786e-07
5.96689423968e-08
0.000889005571175
-5.27664483681e-07
5.98620832791e-08
0.000889011201849
-7.03950848798e-07
5.95168723908e-08
0.000889114555973
-8.78436149598e-07
5.97828669973e-08
0.000889086193095
-1.23707342116e-06
5.95958588061e-08
0.00088927017665
-1.31387837101e-06
5.94487794692e-08
0.000889015808638
8.1118512611e-08
0.000887613293279
-3.24943172237e-08
2.94418483732e-08
0.000888951153307
-6.33188507294e-08
2.94132123863e-08
0.000888954180623
-9.6532133795e-08
2.93959664736e-08
0.000888953886722
-1.3120244444e-07
2.93580755155e-08
0.000888947308235
-1.71983125398e-07
2.93123055913e-08
0.000888980039519
-2.15554131692e-07
2.9278111928e-08
0.000888956134141
-2.72904771652e-07
2.9193564432e-08
0.000888969829088
-3.34677604531e-07
2.91808225207e-08
0.000889000922358
-4.28212242428e-07
2.90699477508e-08
0.000889005911946
-5.27266215386e-07
2.91487157701e-08
0.00088901154567
-7.03178580557e-07
2.89683187253e-08
0.000889114905978
-8.7719510044e-07
2.90711952579e-08
0.000889086506554
-1.23518674599e-06
2.90013314111e-08
0.000889270364594
-1.31179622118e-06
2.91622178801e-08
0.000889015341206
4.06968403265e-08
0.000887610403662
-3.25215305571e-08
0.000888948012801
-6.33515038119e-08
0.000888951029477
-9.65748948739e-08
0.000888950739094
-1.31251912945e-07
0.000888944149652
-1.72046095226e-07
0.000888976883238
-2.15632909136e-07
0.000888952967258
-2.73008450045e-07
0.000888966663916
-3.34821449615e-07
0.000888997746416
-4.2841273019e-07
0.000889002738777
-5.27556243262e-07
0.000889008364161
-7.035885005e-07
0.000889111728324
-8.77788349668e-07
0.000889083328561
-1.23598831951e-06
0.000889267251612
-1.31267851617e-06
0.000889012563494
0.000887608355528
-4.22881093163e-08
7.20594707224e-07
0.000886927740637
-8.08611534861e-08
7.19819437668e-07
0.000886929387208
-1.23545396627e-07
7.21745808242e-07
0.00088693449001
-1.63192189364e-07
7.19409380924e-07
0.000886923236847
-2.11063054721e-07
7.23344489423e-07
0.00088696847132
-2.54222894779e-07
7.19600457984e-07
0.000886934175489
-3.0867054569e-07
7.25214512634e-07
0.000886971805652
-3.58449030802e-07
7.20930065077e-07
0.000886981322851
-4.16627919912e-07
7.26255856357e-07
0.000887028984847
-4.76740653196e-07
7.24420903258e-07
0.000886992143727
-5.19156764061e-07
7.20773731606e-07
0.00088716574415
-5.92654196088e-07
7.32729372503e-07
0.000887065318351
-5.21992256633e-07
6.67129089209e-07
0.0008873454769
-5.52732396512e-07
7.35870619919e-07
0.000887152727619
5.52351885915e-07
0.000883879287885
-4.11055863915e-08
6.93980418109e-07
0.000889078002175
-7.96333232584e-08
6.93142588669e-07
0.000889080780672
-1.20191255821e-07
6.94889346734e-07
0.00088908346409
-1.61035612871e-07
6.92461065502e-07
0.000889075999014
-2.06034159752e-07
6.9579121082e-07
0.000889115369054
-2.51922784111e-07
6.92187851795e-07
0.00088908945088
-3.04030236384e-07
6.96198299755e-07
0.000889114749659
-3.58400260524e-07
6.92790595895e-07
0.000889141902879
-4.1961417647e-07
6.94222849248e-07
0.000889165106925
-4.86477447967e-07
6.95282597907e-07
0.000889164098364
-5.55961590069e-07
6.85699493803e-07
0.00088929326216
-6.32672336002e-07
6.99291960077e-07
0.000889257101526
-6.91593395606e-07
6.46371264397e-07
0.00088946469959
-7.36294324115e-07
6.90762838864e-07
0.000889244780318
5.21199918941e-07
0.000887152736992
-4.06219038963e-08
6.69692962866e-07
0.000889329903017
-7.91530485301e-08
6.69015200393e-07
0.000889333273325
-1.18839749215e-07
6.70217915765e-07
0.000889334776613
-1.60188893024e-07
6.68318206205e-07
0.000889329258574
-2.03958681366e-07
6.7041408297e-07
0.00088936580403
-2.5081057016e-07
6.67687893469e-07
0.000889343981894
-3.01400781475e-07
6.69483379413e-07
0.000889363488129
-3.56809262421e-07
6.67007919966e-07
0.000889398598556
-4.16887106474e-07
6.64772106879e-07
0.000889410368436
-4.82627223794e-07
6.65296456755e-07
0.000889423420605
-5.49869506586e-07
6.51426903243e-07
0.000889526397675
-6.15094951617e-07
6.57442043958e-07
0.000889508943538
-6.47292141992e-07
6.13787877002e-07
0.000889641615628
-6.67611175899e-07
6.31423174211e-07
0.000889464692171
5.91406493987e-07
0.000887345467851
-4.06038748955e-08
5.84908502254e-07
0.000889206453617
-7.91482793782e-08
5.84390497391e-07
0.000889209928077
-1.18875842729e-07
5.8517186033e-07
0.000889211209574
-1.60391018251e-07
5.83804106311e-07
0.000889206048317
-2.04517746467e-07
5.85055094103e-07
0.000889242123151
-2.52001170484e-07
5.83243179479e-07
0.000889221070208
-3.03962372238e-07
5.83900669752e-07
0.000889239894364
-3.61415648636e-07
5.82629499004e-07
0.000889276509501
-4.25853821858e-07
5.80058873284e-07
0.000889287361779
-4.98145810486e-07
5.81111384344e-07
0.000889303759579
-5.76612622404e-07
5.70440672649e-07
0.000889406376226
-6.58743372591e-07
5.74930620021e-07
0.000889391766305
-7.00198208801e-07
5.48183305547e-07
0.000889508930919
-7.33193745335e-07
5.54300432894e-07
0.000889257085808
5.17474894056e-07
0.000887065306551
-4.07084327582e-08
5.06854680395e-07
0.000889228190064
-7.92826891819e-08
5.06450718327e-07
0.000889231661709
-1.19092639564e-07
5.06874430055e-07
0.000889232897448
-1.60538613834e-07
5.05858889538e-07
0.000889227741068
-2.04701585049e-07
5.06381231404e-07
0.000889263732881
-2.51884120597e-07
5.05074227496e-07
0.000889242625912
-3.03744881465e-07
5.04776990184e-07
0.000889261360624
-3.60460225311e-07
5.03910499161e-07
0.000889297602801
-4.24196786127e-07
5.00905955501e-07
0.000889308355025
-4.95358449994e-07
5.01662339511e-07
0.000889323300176
-5.7212847109e-07
4.93302084713e-07
0.000889425681409
-6.52727580966e-07
4.96097972829e-07
0.000889406340636
-6.86597722643e-07
4.80576467509e-07
0.000889526347746
-7.2123485686e-07
4.84432758489e-07
0.000889293203223
4.74656299643e-07
0.000887165676867
-4.07911192748e-08
4.32578716504e-07
0.000889121108596
-7.94094811859e-08
4.32261308504e-07
0.000889124585275
-1.19406358641e-07
4.32470330666e-07
0.000889125828241
-1.61010195511e-07
4.31727424505e-07
0.000889120732107
-2.05710628788e-07
4.31853043974e-07
0.000889156835251
-2.53415663249e-07
4.30952944963e-07
0.000889135843145
-3.06465263194e-07
4.30312985588e-07
0.000889154926924
-3.64436075506e-07
4.29840146555e-07
0.000889191281825
-4.30301026189e-07
4.27211423471e-07
0.000889203083845
-5.03715107481e-07
4.27887825294e-07
0.000889217952997
-5.82790608923e-07
4.21785126788e-07
0.000889323268872
-6.66581598512e-07
4.23451691179e-07
0.000889303692699
-6.96157155163e-07
4.14481854482e-07
0.000889423339548
-7.24861973382e-07
4.17201839652e-07
0.000889164019121
4.14167226593e-07
0.000886992069203
-4.09296518725e-08
3.66145274689e-07
0.000889107719753
-7.95979148804e-08
3.65883377234e-07
0.000889111164703
-1.19684191687e-07
3.65934304658e-07
0.000889112397266
-1.61229628977e-07
3.65367897167e-07
0.000889107207383
-2.05941375019e-07
3.65246754686e-07
0.000889143241713
-2.53425322798e-07
3.64586457934e-07
0.00088912204491
-3.06384724442e-07
3.63798741368e-07
0.000889141075602
-3.64030439559e-07
3.63470096013e-07
0.000889177028994
-4.29624981866e-07
3.612873717e-07
0.000889188836308
-5.02959397125e-07
3.61696171798e-07
0.000889203021413
-5.81739711451e-07
3.57727221649e-07
0.00088930826274
-6.6606638868e-07
3.58698185359e-07
0.000889287233403
-6.95105500819e-07
3.54088781768e-07
0.000889410217527
-7.26702519388e-07
3.55658710131e-07
0.000889164954365
3.55655105243e-07
0.000887028820426
-4.11079834013e-08
3.07530770996e-07
0.00088909505658
-7.99148688807e-08
3.0731090905e-07
0.00088909850005
-1.20217940908e-07
3.072787653e-07
0.000889099752237
-1.61938589854e-07
3.06838245424e-07
0.00088909457035
-2.06977723682e-07
3.06611552461e-07
0.000889130668717
-2.54728613298e-07
3.0611417562e-07
0.00088910948927
-3.08155305451e-07
3.05354038997e-07
0.000889128710031
-3.66220897737e-07
3.05086570023e-07
0.000889164708532
-4.32254520632e-07
3.03329858286e-07
0.000889176990053
-5.05957693336e-07
3.03417606524e-07
0.000889191178767
-5.84295353645e-07
3.00707017527e-07
0.000889297470063
-6.68275434184e-07
3.00943414316e-07
0.000889276342055
-6.93645867074e-07
2.98381589501e-07
0.000889398417055
-7.21359061757e-07
3.00981840414e-07
0.000889141727482
3.05562968095e-07
0.000886981155584
-4.11932680884e-08
2.53494101141e-07
0.000889059408482
-8.00184318226e-08
2.53309577159e-07
0.000889062811015
-1.20373206847e-07
2.53232282779e-07
0.000889064063033
-1.62088172135e-07
2.52886143907e-07
0.000889058812103
-2.07183602527e-07
2.52622391502e-07
0.000889094905707
-2.54919334136e-07
2.52243690967e-07
0.000889073608655
-3.08411503745e-07
2.51585351981e-07
0.000889092839661
-3.6653483033e-07
2.5138994914e-07
0.000889128615979
-4.32710926697e-07
2.50106468714e-07
0.000889140946097
-5.06809792356e-07
2.50110412886e-07
0.000889154736016
-5.85556168789e-07
2.48591780871e-07
0.000889261142809
-6.7074615598e-07
2.48730821804e-07
0.00088923964447
-6.97055262689e-07
2.47542899296e-07
0.000889363223609
-7.25650880797e-07
2.48626465219e-07
0.000889114474189
2.50862153122e-07
0.000886971510716
-4.13243588998e-08
2.0525446305e-07
0.000889040019657
-8.02453227625e-08
2.0509792785e-07
0.000889043415963
-1.20725204757e-07
2.05006063664e-07
0.000889044677614
-1.62534717296e-07
2.04727311267e-07
0.000889039420007
-2.07769190724e-07
2.04467524029e-07
0.000889075547481
-2.55593776232e-07
2.04157740853e-07
0.00088905424769
-3.09182118132e-07
2.03593483128e-07
0.000889073570784
-3.67327127651e-07
2.03391159663e-07
0.00088910935328
-4.33349136582e-07
2.02380017483e-07
0.000889121873429
-5.070997658e-07
2.02170898932e-07
0.000889135608449
-5.8488516159e-07
2.01176710118e-07
0.000889242363878
-6.68931650139e-07
2.01018750446e-07
0.000889220775938
-6.93020979743e-07
2.00463858291e-07
0.000889343675523
-7.20016510623e-07
2.02507859098e-07
0.000889089153889
2.0746680885e-07
0.00088693388973
-4.14167302978e-08
1.59594057806e-07
0.000889061351618
-8.03750170433e-08
1.59469429013e-07
0.000889064707743
-1.20911943039e-07
1.59382695078e-07
0.000889065974705
-1.62755828838e-07
1.59171824796e-07
0.000889060659472
-2.08061239086e-07
1.58954411818e-07
0.000889096788027
-2.5594560582e-07
1.5872783738e-07
0.000889075408762
-3.09645853814e-07
1.58307007407e-07
0.000889094735592
-3.67951543582e-07
1.58170889191e-07
0.000889130406111
-4.34213453608e-07
1.57491723081e-07
0.000889142949592
-5.08376673405e-07
1.57302877169e-07
0.000889156487986
-5.86675188455e-07
1.56848421723e-07
0.000889263362159
-6.71647817772e-07
1.56731257175e-07
0.000889241725304
-6.96626676478e-07
1.56535903149e-07
0.000889365392479
-7.23769214454e-07
1.57352679261e-07
0.000889114945852
1.59438221677e-07
0.00088696802203
-4.14970970603e-08
1.17428510399e-07
0.000889025189373
-8.05104743688e-08
1.17330949021e-07
0.000889028542352
-1.21108216418e-07
1.17257149334e-07
0.000889029813137
-1.62991504424e-07
1.17096634505e-07
0.000889024492779
-2.08336078234e-07
1.16921427144e-07
0.000889060635236
-2.56220272263e-07
1.16743516746e-07
0.000889039250148
-3.09878939784e-07
1.16421226309e-07
0.000889058610426
-3.6807409543e-07
1.16290819001e-07
0.000889094271087
-4.34083488821e-07
1.15790743151e-07
0.000889106877992
-5.07844587426e-07
1.15552889612e-07
0.000889120345256
-5.85408346497e-07
1.15258521465e-07
0.000889227329196
-6.69529626585e-07
1.1507647828e-07
0.000889205608315
-6.93268257015e-07
1.15048050099e-07
0.000889328808096
-7.19810609161e-07
1.16367191026e-07
0.000889075563374
1.19645412562e-07
0.000886922815744
-4.15699704468e-08
7.66108814937e-08
0.000889030380374
-8.06141865136e-08
7.65471832705e-08
0.000889033700069
-1.21253737073e-07
7.64958822245e-08
0.000889034977637
-1.6317118207e-07
7.63955463539e-08
0.000889029615836
-2.08569938663e-07
7.62825725048e-08
0.000889065761095
-2.56512706756e-07
7.61762881997e-08
0.000889044328185
-3.10259932753e-07
7.59814391706e-08
0.000889063690499
-3.68581174916e-07
7.59132495531e-08
0.000889099296055
-4.34770201009e-07
7.56323015068e-08
0.000889111919273
-5.08812673209e-07
7.5491344932e-08
0.000889125306508
-5.86740580772e-07
7.53860270769e-08
0.000889232357036
-6.71410344433e-07
7.52902913156e-08
0.000889210649727
-6.95694602498e-07
7.53047599096e-08
0.000889334204952
-7.22154643987e-07
7.57556442537e-08
0.000889082881003
7.69099316631e-08
0.000886933874626
-4.16053079258e-08
3.74030295015e-08
0.000889029104758
-8.06742334759e-08
3.73698128575e-08
0.000889032427328
-1.21336679795e-07
3.73423955782e-08
0.000889033703097
-1.63266632622e-07
3.72926469682e-08
0.00088902834156
-2.08669528492e-07
3.72360095659e-08
0.000889064489487
-2.56595591299e-07
3.71830336175e-08
0.000889043054006
-3.10295128194e-07
3.70862090248e-08
0.000889062424438
-3.68529688541e-07
3.70480980124e-08
0.000889098022682
-4.34556540446e-07
3.69080256844e-08
0.000889110663705
-5.08378606881e-07
3.68249524143e-08
0.000889124034773
-5.85942458365e-07
3.67653278811e-08
0.000889231091192
-6.70183796104e-07
3.6703256468e-08
0.000889209335606
-6.93917294261e-07
3.67309980174e-08
0.000889332672603
-7.20202700329e-07
3.71824868569e-08
0.000889080200536
3.82868434607e-08
0.000886928824548
-4.16398216947e-08
0.00088902554407
-8.07171756848e-08
0.000889028847845
-1.21392714853e-07
0.000889030129531
-1.63333113574e-07
0.000889024748449
-2.08754046044e-07
0.000889060900811
-2.56700652205e-07
0.000889039446755
-3.10431386015e-07
0.000889058820954
-3.68710733364e-07
0.000889094401064
-4.34799301254e-07
0.000889107050703
-5.08720075086e-07
0.000889120409294
-5.86413283677e-07
0.000889227479147
-6.70834559526e-07
0.000889205732702
-6.94748924118e-07
0.000889329172743
-7.20984199474e-07
0.000889077261639
0.000886926962661
-4.34927195516e-08
6.232000128e-07
0.000886345287454
-8.31880175246e-08
6.22370698519e-07
0.000886346712278
-1.26976917094e-07
6.24012795142e-07
0.000886354266615
-1.67879521023e-07
6.21511815376e-07
0.000886342628149
-2.16740548536e-07
6.24740460378e-07
0.000886392592408
-2.61291277973e-07
6.20662283503e-07
0.000886358064466
-3.15864941438e-07
6.24820814857e-07
0.000886401559041
-3.66861886716e-07
6.19912403567e-07
0.000886412407948
-4.21642573404e-07
6.22350390321e-07
0.00088646141571
-4.81343957948e-07
6.19254272676e-07
0.00088643259142
-5.09638267245e-07
6.10943867205e-07
0.000886583095179
-5.72265382988e-07
6.17981250089e-07
0.000886509964813
-4.83170161862e-07
5.71959059268e-07
0.000886684423213
-4.7605043776e-07
5.97786140364e-07
0.000886547822335
4.75652058483e-07
0.00088292758591
-4.2765567034e-08
5.65382181433e-07
0.000889175819533
-8.27518514884e-08
5.64454895923e-07
0.000889178683486
-1.24693701842e-07
5.66191998268e-07
0.000889183227485
-1.66882103001e-07
5.63511821868e-07
0.000889176188167
-2.12817105889e-07
5.66813515522e-07
0.000889219231774
-2.59521366429e-07
5.62652810882e-07
0.0008891941654
-3.10843390708e-07
5.66656207668e-07
0.000889224237097
-3.64049391554e-07
5.62056641181e-07
0.000889252965468
-4.18790442554e-07
5.64011292094e-07
0.000889278187917
-4.77539828507e-07
5.61640276359e-07
0.000889280462606
-5.20999519024e-07
5.54652664427e-07
0.000889393013923
-5.72381158826e-07
5.59962027082e-07
0.000889366503265
-5.48743094338e-07
5.31682007099e-07
0.000889481339457
-5.98237384579e-07
5.478446514e-07
0.000889344216951
4.82330382714e-07
0.000886547821846
-4.18757522455e-08
5.72841914503e-07
0.000889361536732
-8.13730572604e-08
5.72071902689e-07
0.000889365154273
-1.21794366215e-07
5.73301299715e-07
0.000889368089288
-1.63670322782e-07
5.7118323305e-07
0.000889363463797
-2.0724214279e-07
5.73350682644e-07
0.000889402839372
-2.53377847935e-07
5.70169379561e-07
0.000889382601735
-3.01311763543e-07
5.72273047451e-07
0.000889405805926
-3.52698619483e-07
5.68877288209e-07
0.000889443165504
-4.03006468959e-07
5.68342244603e-07
0.000889456346088
-4.57080091284e-07
5.66408807945e-07
0.000889472726464
-4.97807339011e-07
5.57721150457e-07
0.000889564057217
-5.42654365875e-07
5.60540228785e-07
0.000889553213156
-5.32684210956e-07
5.41221010482e-07
0.000889622107295
-5.72479988128e-07
5.7101306678e-07
0.000889481320344
5.70929440454e-07
0.000886684389347
-4.18452393292e-08
5.18171862111e-07
0.000889300172269
-8.13227780473e-08
5.17547104113e-07
0.000889303931011
-1.21736630297e-07
5.18358701792e-07
0.000889306566638
-1.63676747532e-07
5.16769340966e-07
0.000889302402949
-2.07418555772e-07
5.18060962995e-07
0.000889341155314
-2.53836851873e-07
5.15827918929e-07
0.000889321830616
-3.02472445626e-07
5.16703975307e-07
0.000889344099699
-3.54805039254e-07
5.14642169823e-07
0.000889383077898
-4.07488424304e-07
5.13151892803e-07
0.000889395236216
-4.64295407759e-07
5.12594731484e-07
0.000889414381353
-5.10363044721e-07
5.05190934666e-07
0.000889504974805
-5.61975951166e-07
5.08496507253e-07
0.000889495423679
-5.60956713953e-07
4.95945465535e-07
0.000889553188021
-6.18487910743e-07
5.19165301638e-07
0.000889366465579
5.07828238848e-07
0.000886509920384
-4.19032475202e-08
4.72328040241e-07
0.000889313104826
-8.13527883284e-08
4.71805215359e-07
0.000889316853713
-1.21783789765e-07
4.72266244274e-07
0.000889319421499
-1.63594753751e-07
4.71042166788e-07
0.00088931527981
-2.07310396406e-07
4.71623074259e-07
0.000889353887032
-2.5341343089e-07
4.69987366709e-07
0.000889334570135
-3.01901525338e-07
4.69910279252e-07
0.000889356643068
-3.53633991519e-07
4.68512169628e-07
0.000889395465937
-4.0588495934e-07
4.66298676657e-07
0.000889407459891
-4.61919210721e-07
4.66029883835e-07
0.000889425899968
-5.07057383139e-07
4.59636894159e-07
0.00088951637433
-5.59153244728e-07
4.6201507108e-07
0.000889504918661
-5.55638570286e-07
4.54806494929e-07
0.000889563972826
-6.11447390794e-07
4.75270540679e-07
0.000889392907609
4.79094935069e-07
0.000886582963312
-4.20920922342e-08
4.13493280644e-07
0.000889219179181
-8.16836746042e-08
4.13045032051e-07
0.000889222937605
-1.22396929015e-07
4.13306448828e-07
0.000889225501873
-1.64412129065e-07
4.12375540467e-07
0.000889221414529
-2.08624554265e-07
4.12610117489e-07
0.000889260061245
-2.55096494489e-07
4.11452350873e-07
0.000889240850733
-3.04479378681e-07
4.11058603062e-07
0.000889263162134
-3.57000762465e-07
4.10163503442e-07
0.000889302152539
-4.10678977838e-07
4.08135181399e-07
0.000889314926227
-4.68313423211e-07
4.07988310925e-07
0.000889333629701
-5.14454211494e-07
4.03201078868e-07
0.00088942584617
-5.67824362543e-07
4.04806430197e-07
0.000889414272208
-5.62600289596e-07
4.00331730456e-07
0.000889472591013
-6.19738667875e-07
4.16107594142e-07
0.000889280321242
4.18981028487e-07
0.000886432444967
-4.22138643763e-08
3.58971158898e-07
0.000889201544762
-8.18147909543e-08
3.58571996959e-07
0.000889205239209
-1.22583927322e-07
3.58680713047e-07
0.000889207792704
-1.64537995598e-07
3.57926232466e-07
0.000889203611342
-2.0880767082e-07
3.57897832111e-07
0.000889242224277
-2.55179027102e-07
3.57007237741e-07
0.000889222862005
-3.04627714643e-07
3.56417302033e-07
0.000889245166234
-3.57064015729e-07
3.55767406793e-07
0.000889283862048
-4.10816438822e-07
3.54006066658e-07
0.000889296718509
-4.68572632274e-07
3.53938098252e-07
0.000889314828488
-5.15001296216e-07
3.50583797004e-07
0.000889407309365
-5.69753176975e-07
3.51759606663e-07
0.000889395032809
-5.64975196436e-07
3.49659881434e-07
0.000889456112154
-6.22843717198e-07