/*--------------------------------*- C++ -*----------------------------------*\
| =========                 |                                                 |
| \\      /  F ield         | OpenFOAM: The Open Source CFD Toolbox           |
|  \\    /   O peration     | Version:  2406                                  |
|   \\  /    A nd           | Website:  www.openfoam.com                      |
|    \\/     M anipulation  |                                                 |
\*---------------------------------------------------------------------------*/
FoamFile
{
    version     2.0;
    format      ascii;
    arch        "LSB;label=32;scalar=64";
    class       surfaceScalarField;
    location    "0.01";
    object      phiHbyA;
}
// * * * * * * * * * * * * * * * * * * * * * * * * * * * * * * * * * * * * * //

dimensions      [0 3 -1 0 0 0 0];

oriented        oriented;

internalField   nonuniform List<scalar> 
86705
(
-4.43921046616e-08
1.28291152985e-06
0.000887597945368
-8.41925436248e-08
1.28203294231e-06
0.000887599893872
-1.32892468395e-07
1.28408073549e-06
0.000887602780837
-1.74370218853e-07
1.28141448081e-06
0.000887592239722
-2.37005518435e-07
1.28549482293e-06
0.000887633107044
-2.8500557026e-07
1.28129308808e-06
0.000887599807194
-3.74658981194e-07
1.2861442437e-06
0.000887631596814
-4.37750771824e-07
1.28262343315e-06
0.000887641567897
-5.77928605091e-07
1.28061857623e-06
0.000887685801349
-6.76394576295e-07
1.28960730566e-06
0.000887645352178
-8.95767641204e-07
1.23731291559e-06
0.000887832241764
-1.09467892489e-06
1.32550976215e-06
0.000887713036533
-1.34055759206e-06
9.96717878368e-07
0.000888070046428
-1.93259665701e-06
1.61540259543e-06
0.000887845215094
1.93221239243e-06
0.000884968447238
-3.20117208407e-08
1.24446814855e-06
0.000889011858735
-6.17039336049e-08
1.24366767536e-06
0.000889014562533
-9.55560098819e-08
1.24551526943e-06
0.000889015005322
-1.27980771923e-07
1.2431983043e-06
0.000889007171485
-1.70484714559e-07
1.24672128562e-06
0.000889041704483
-2.10323813374e-07
1.24348918691e-06
0.00088901506326
-2.71292807143e-07
1.24731736701e-06
0.00088903237093
-3.27575520161e-07
1.24605986629e-06
0.000889058205238
-4.31749346645e-07
1.24513214134e-06
0.000889070302533
-5.24471972148e-07
1.25636805517e-06
0.000889066706729
-7.48918039351e-07
1.22851044726e-06
0.000889186422871
-9.19631899659e-07
1.2961992177e-06
0.000889145157514
-1.53473651028e-06
1.14531735912e-06
0.000889380704624
-1.6157457755e-06
1.53413660504e-06
0.000889152136684
1.33981030947e-06
0.000887845236261
-3.18666726067e-08
8.63167074624e-07
0.000889263594392
-6.18920978604e-08
8.62562398919e-07
0.000889266648883
-9.4909244343e-08
8.63766355731e-07
0.000889266423105
-1.28066889679e-07
8.62106798612e-07
0.000889259781073
-1.68571175119e-07
8.64127932033e-07
0.000889292595054
-2.09207706266e-07
8.62014812441e-07
0.000889268599496
-2.65438496218e-07
8.63146398202e-07
0.000889281979145
-3.20712803007e-07
8.62825055821e-07
0.000889313298346
-4.10652606038e-07
8.58118327111e-07
0.000889316325781
-4.92069833265e-07
8.65833320316e-07
0.000889323466989
-6.6069415506e-07
8.38951472458e-07
0.000889419663103
-7.73724358358e-07
8.72305140891e-07
0.00088939758865
-1.14597189858e-06
7.72795539233e-07
0.000889569803203
-9.97097772608e-07
9.18741965437e-07
0.00088938071743
1.09353227353e-06
0.000888070064011
-3.19465555616e-08
7.07034513758e-07
0.000889083134494
-6.21202774673e-08
7.06589684424e-07
0.000889086254184
-9.5253957506e-08
7.07345560322e-07
0.000889085902132
-1.28793885993e-07
7.06220034374e-07
0.000889079493813
-1.69831587253e-07
7.07337868394e-07
0.000889112035322
-2.11547896277e-07
7.06128547893e-07
0.000889088569657
-2.70011246447e-07
7.06191086826e-07
0.00088910159814
-3.28720173938e-07
7.06713302039e-07
0.000889134020948
-4.26349683298e-07
7.02018876128e-07
0.000889137110104
-5.19808278343e-07
7.08568369504e-07
0.00088914649013
-7.12112014058e-07
6.89607196997e-07
0.000889244970618
-8.73239307233e-07
7.10898313271e-07
0.000889226173232
-1.29685448663e-06
6.59487836025e-07
0.000889397592159
-1.32588327593e-06
7.47734908621e-07
0.000889145171773
8.94232917358e-07
0.000887713054879
-3.18554971419e-08
5.19443362242e-07
0.000889110273634
-6.18741029456e-08
5.1910669469e-07
0.000889113387889
-9.48876031663e-08
5.19498209659e-07
0.00088911300193
-1.28090544847e-07
5.187207317e-07
0.000889106571835
-1.68903810526e-07
5.19123597237e-07
0.000889139041684
-2.09749824393e-07
5.18394980919e-07
0.000889115454769
-2.6752646416e-07
5.17616385481e-07
0.000889128375286
-3.23898935491e-07
5.1823619241e-07
0.000889160280697
-4.19282288833e-07
5.13723898749e-07
0.000889163134606
-5.06814131459e-07
5.18290723041e-07
0.000889170719354
-6.90821321775e-07
5.05326774178e-07
0.000889268650259
-8.39885204742e-07
5.18321239207e-07
0.000889244956293
-1.22916180552e-06
4.90589982012e-07
0.000889419651249
-1.23768243e-06
5.23007025154e-07
0.000889186417557
6.7449439255e-07
0.000887832233036
-3.20617007916e-08
4.28606071422e-07
0.000889008170479
-6.22543112406e-08
4.28344967352e-07
0.000889011284331
-9.55740666429e-08
4.28528952999e-07
0.000889010904726
-1.29031440439e-07
4.2797888427e-07
0.000889004482658
-1.70508233828e-07
4.28036572958e-07
0.000889037012554
-2.119389977e-07
4.27594455756e-07
0.000889013456254
-2.71337857582e-07
4.26651557673e-07
0.000889026663318
-3.29273431258e-07
4.27212352848e-07
0.00088905860464
-4.28265352054e-07
4.23548197459e-07
0.000889062418853
-5.19779265185e-07
4.26514978951e-07
0.000889070027615
-7.09776960908e-07
4.17537062252e-07
0.000889170706387
-8.66754559404e-07
4.24604431514e-07
0.000889146463071
-1.25700180119e-06
4.08916830431e-07
0.000889323442271
-1.28996281277e-06
4.30024884478e-07
0.000889066693422
5.75689153537e-07
0.00088764534235
-3.20031375035e-08
3.29384628338e-07
0.000889002121408
-6.20794497068e-08
3.29174432995e-07
0.000889005217208
-9.53497266348e-08
3.29216088376e-07
0.000889004844186
-1.28618072173e-07
3.28806746471e-07
0.000888998380884
-1.70027374558e-07
3.28635779954e-07
0.000889030923108
-2.11020274596e-07
3.2833107211e-07
0.000889007231169
-2.70145789516e-07
3.27362451636e-07
0.000889020449322
-3.27100652285e-07
3.27808210784e-07
0.000889051984345
-4.25292629782e-07
3.2511052717e-07
0.000889055819595
-5.15206421887e-07
3.27278622645e-07
0.000889062389778
-7.0322281142e-07
3.21913150074e-07
0.0008891630936
-8.59031437097e-07
3.26731472834e-07
0.000889137052958
-1.24575943679e-06
3.18739722053e-07
0.0008893162715
-1.2809729956e-06
3.25615867282e-07
0.000889070256821
4.3520026342e-07
0.000887685750286
-3.213536559e-08
2.71605712189e-07
0.000888997612505
-6.23190318218e-08
2.71431136161e-07
0.000889000706605
-9.57827550006e-08
2.7140834398e-07
0.000889000350195
-1.29221228694e-07
2.71097633216e-07
0.000888993886133
-1.71019722812e-07
2.70858400791e-07
0.000889026480181
-2.12364890597e-07
2.70619203249e-07
0.000889002788785
-2.72202953804e-07
2.69754808929e-07
0.000889016167366
-3.29805644452e-07
2.69981140548e-07
0.000889047711855
-4.2895986997e-07
2.67934447358e-07
0.000889051970154
-5.19718064172e-07
2.69123424858e-07
0.000889058561015
-7.07912034826e-07
2.6532514384e-07
0.000889160224546
-8.63732867639e-07
2.67806729204e-07
0.000889133950379
-1.24667525901e-06
2.63249748562e-07
0.000889313230631
-1.28296173013e-06
2.69119979103e-07
0.00088905814937
3.71831274889e-07
0.000887641515985
-3.2180104e-08
2.11332284044e-07
0.000888966368442
-6.23521497904e-08
2.11185322694e-07
0.000888969439751
-9.58318610953e-08
2.11127978058e-07
0.000888969087771
-1.29205824899e-07
2.10886752834e-07
0.000888962580913
-1.70995353839e-07
2.10634871451e-07
0.000888995176848
-2.12189391204e-07
2.10456131154e-07
0.000888971396787
-2.71964997702e-07
2.09772462696e-07
0.000888984779206
-3.29346474207e-07
2.09941288816e-07
0.000889016124575
-4.28385094085e-07
2.08610583016e-07
0.000889020393968
-5.19086683954e-07
2.0952978908e-07
0.000889026579834
-7.07381626263e-07
2.07357757097e-07
0.000889128280319
-8.64053430825e-07
2.09155529833e-07
0.000889101489513
-1.24793872259e-06
2.0683138527e-07
0.000889281872183
-1.28648697445e-06
2.07963703247e-07
0.000889032268146
2.81936158277e-07
0.000887631485037
-3.2286008981e-08
1.6975722311e-07
0.000888952867095
-6.25426050841e-08
1.6963126182e-07
0.00088895593576
-9.61435377987e-08
1.69564222453e-07
0.000888955594636
-1.29615419758e-07
1.69365791469e-07
0.000888949084648
-1.71571369441e-07
1.69130160432e-07
0.000888981710332
-2.12887969368e-07
1.68960358745e-07
0.000888957927831
-2.72840559677e-07
1.68402072987e-07
0.000888971385183
-3.30322448217e-07
1.68425445117e-07
0.000889002732173
-4.29330589044e-07
1.67449563313e-07
0.000889007161833
-5.19862562378e-07
1.67933976445e-07
0.000889013357729
-7.07309943695e-07
1.66350619075e-07
0.000889115343902
-8.6290571266e-07
1.67280377897e-07
0.000889088444987
-1.24408775174e-06
1.66036852277e-07
0.000889268476912
-1.28161439444e-06
1.67967773783e-07
0.000889014953472
2.33731988386e-07
0.000887599702058
-3.23471654686e-08
1.27475340932e-07
0.000888976687634
-6.2621099419e-08
1.27373761625e-07
0.000888979733566
-9.62555196313e-08
1.27313861111e-07
0.00088897939786
-1.29730681238e-07
1.27164135327e-07
0.000888972853492
-1.71723670235e-07
1.26977985985e-07
0.000889005482156
-2.13042888104e-07
1.26855081742e-07
0.000888981646283
-2.73051099462e-07
1.26465535095e-07
0.000888995104539
-3.30597721271e-07
1.26487972372e-07
0.000889026365658
-4.29744635259e-07
1.25903847655e-07
0.000889030798754
-5.20568042167e-07
1.26324930714e-07
0.000889036862432
-7.08502363465e-07
1.25408872082e-07
0.000889138880988
-8.65011296082e-07
1.26117663029e-07
0.00088911186293
-1.24732160474e-06
1.25408839787e-07
0.000889292423823
-1.28581947317e-06
1.25342461234e-07
0.000889041535358
1.70940480623e-07
0.000887632924738
-3.24087447829e-08
9.37734084886e-08
0.000888944039508
-6.27293939176e-08
9.36927547411e-08
0.000888947084629
-9.642089989e-08
9.3642424938e-08
0.000888946754836
-1.29934991586e-07
9.35247603845e-08
0.000888940209183
-1.7197630303e-07
9.33778231744e-08
0.000888972851602
-2.1330954112e-07
9.32687513221e-08
0.000888949014643
-2.7330190393e-07
9.2978646019e-08
0.00088896250219
-3.30776265706e-07
9.29446588672e-08
0.000888993761951
-4.29689905626e-07
9.25327443718e-08
0.000888998246272
-5.2016279955e-07
9.27687334756e-08
0.000889004319948
-7.07375050686e-07
9.21100895685e-08
0.000889106397691
-8.62973044771e-07
9.24850756565e-08
0.000889079307029
-1.24377383776e-06
9.21593657775e-08
0.000889259596467
-1.28171509187e-06
9.28264903998e-08
0.000889007000795
1.29342656489e-07
0.000887592073979
-3.24612890908e-08
5.99085275877e-08
0.000888950529683
-6.28021266955e-08
5.98551723733e-08
0.00088895355553
-9.6522243454e-08
5.98222416675e-08
0.000888953231221
-1.30055826267e-07
5.97488256065e-08
0.000888946661533
-1.72134796806e-07
5.96579277292e-08
0.000888979306802
-2.13504501573e-07
5.95945771025e-08
0.000888955440744
-2.73562419226e-07
5.94262023918e-08
0.0008889689293
-3.31136181251e-07
5.94169110582e-08
0.000889000153392
-4.30194184815e-07
5.91997963114e-08
0.000889004640834
-5.20902680767e-07
5.93911277278e-08
0.000889010679576
-7.0847295947e-07
5.90404758926e-08
0.000889112768473
-8.64617910113e-07
5.9298537037e-08
0.000889085659741
-1.24608893204e-06
5.90903669617e-08
0.000889266182233
-1.28438314169e-06
5.89255042077e-08
0.000889014764971
8.05813559809e-08
0.000887602523056
-3.24854628006e-08
2.94601199398e-08
0.000888950866375
-6.28456531478e-08
2.94323545107e-08
0.000888953894405
-9.65866940368e-08
2.94148947089e-08
0.000888953571542
-1.30131571395e-07
2.93777161283e-08
0.000888947002891
-1.72218437374e-07
2.93321076444e-08
0.000888979653282
-2.13577358424e-07
2.9298341857e-08
0.000888955787153
-2.73598466678e-07
2.9214620396e-08
0.000888969285292
-3.31104089982e-07
2.92021972818e-08
0.000889000508895
-4.30014778725e-07
2.90932697236e-08
0.000889005011449
-5.20509968382e-07
2.91734457077e-08
0.000889011053072
-7.07708666629e-07
2.89978246896e-08
0.000889113147089
-8.63396880359e-07
2.91035488914e-08
0.000889086002442
-1.2442156217e-06
2.90438712041e-08
0.000889266399811
-1.28231018401e-06
2.92116184459e-08
0.000889014328541
4.07500628392e-08
0.000887599664631
-3.25118056609e-08
0.000888947724053
-6.28785214951e-08
0.000888950741355
-9.66287423908e-08
0.000888950422033
-1.30180882304e-07
0.00088894384238
-1.7228097801e-07
0.000888976495068
-2.13655315807e-07
0.000888952618354
-2.73701824819e-07
0.000888966118204
-3.31245998027e-07
0.000888997331112
-4.30213818375e-07
0.000889001836551
-5.20795358493e-07
0.000889007869783
-7.08115723349e-07
0.000889109967301
-8.63980068824e-07
0.000889082822554
-1.24501070402e-06
0.000889263284615
-1.28318919125e-06
0.000889011548413
0.000887597613675
-4.23107757371e-08
7.174460425e-07
0.000886927944118
-8.0402425109e-08
7.1667282844e-07
0.000886929594893
-1.23657726745e-07
7.18590070799e-07
0.000886934701492
-1.62238089344e-07
7.16260196792e-07
0.000886923457571
-2.1129048031e-07
7.20175780052e-07
0.000886968701536
-2.52700285841e-07
7.1644298705e-07
0.000886934420597
-3.0904668268e-07
7.22026352326e-07
0.000886972066319
-3.5626499526e-07
7.1775825479e-07
0.000886981605957
-4.17175823255e-07
7.23044970441e-07
0.000887029287049
-4.73840595833e-07
7.21234244158e-07
0.00088699248027
-5.19842694189e-07
7.17540256981e-07
0.000887166088659
-5.89416304309e-07
7.29564266718e-07
0.000887065722545
-5.22473028135e-07
6.64137671475e-07
0.000887345903023
-5.50681910883e-07
7.32866894463e-07
0.000887153196208
5.50302281324e-07
0.000883879868953
-4.11260592029e-08
6.94918062257e-07
0.000889078309655
-7.91864267406e-08
6.94086112491e-07
0.000889081092659
-1.20296413216e-07
6.95822745683e-07
0.000889083780494
-1.60106545971e-07
6.93410693939e-07
0.000889076325207
-2.06249124328e-07
6.96723613996e-07
0.000889115706851
-2.50439810006e-07
6.93139745418e-07
0.000889089803655
-3.04387741673e-07
6.97133589526e-07
0.000889115123519
-3.56268245757e-07
6.93730234733e-07
0.000889142296902
-4.20134664817e-07
6.9516031223e-07
0.000889165533584
-4.83641192418e-07
6.96157839931e-07
0.000889164550268
-5.56575811747e-07
6.86660715183e-07
0.000889293761876
-6.2927856081e-07
6.99980901871e-07
0.000889257619999
-6.92080329102e-07
6.47325588577e-07
0.000889465271051
-7.33289719155e-07
6.91253255803e-07
0.000889245359859
5.21684298027e-07
0.000887153205541
-4.06363326238e-08
6.6528082027e-07
0.000889330090698
-7.87204917664e-08
6.64612117143e-07
0.000889333465716
-1.18927742296e-07
6.65795895393e-07
0.000889334972505
-1.59285866048e-07
6.63922416792e-07
0.000889329465042
-2.04152168575e-07
6.65985107167e-07
0.0008893660197
-2.49358277563e-07
6.63297993531e-07
0.00088934421482
-3.01750573897e-07
6.65064214344e-07
0.000889363737864
-3.546995962e-07
6.62628091271e-07
0.000889398873125
-4.17464508816e-07
6.60410340599e-07
0.000889410672239
-4.79732265035e-07
6.6096577637e-07
0.000889423759978
-5.5074894367e-07
6.47260747527e-07
0.000889526761663
-6.11467038754e-07
6.53308118313e-07
0.000889509381003
-6.48243000688e-07
6.10163886331e-07
0.000889642031796
-6.64618770686e-07
6.28032853676e-07
0.00088946526375
5.88171923751e-07
0.000887345894059
-4.06092069462e-08
5.86030602045e-07
0.000889206715493
-7.87356986248e-08
5.85516431654e-07
0.00088921019518
-1.18937463415e-07
5.86291590887e-07
0.000889211480446
-1.59523192715e-07
5.84932320383e-07
0.000889206331039
-2.04671870611e-07
5.86174293819e-07
0.000889242415856
-2.50581629101e-07
5.84364832876e-07
0.000889221381782
-3.04271895956e-07
5.85017068341e-07
0.000889240223045
-3.59292920971e-07
5.83720510495e-07
0.000889276865238
-4.26399226702e-07
5.81169514184e-07
0.000889287744095
-4.95093229224e-07
5.82120868271e-07
0.000889304176881
-5.77457464162e-07
5.71507940175e-07
0.000889406813674
-6.54605533165e-07
5.75783535486e-07
0.000889392258005
-7.00884188124e-07
5.4907102417e-07
0.000889509368351
-7.30027803937e-07
5.54922808835e-07
0.000889257604375
5.18169090244e-07
0.000887065710802
-4.07099338508e-08
5.03538668298e-07
0.000889228375089
-7.88762930473e-08
5.03138572595e-07
0.000889231852605
-1.19145768584e-07
5.03554058091e-07
0.000889233091061
-1.59679803532e-07
5.02548594691e-07
0.00088922794734
-2.04853227435e-07
5.03060081125e-07
0.000889263947134
-2.50469779769e-07
5.01771085863e-07
0.000889242861335
-3.04079838099e-07
5.0147779489e-07
0.000889261610291
-3.58317752976e-07
5.00632922986e-07
0.000889297885202
-4.2484337417e-07
4.97669673026e-07
0.000889308655678
-4.92248008457e-07
4.98456597889e-07
0.000889323651963
-5.73187665536e-07
4.90197437435e-07
0.000889426035135
-6.48557324401e-07
4.93050968925e-07
0.000889406778471
-6.87556185807e-07
4.77686995078e-07
0.000889526712048
-7.18000482512e-07
4.81601721467e-07
0.000889293703433
4.71761395498e-07
0.000887166021787
-4.07886868268e-08
4.33282584018e-07
0.000889121292735
-7.90112893438e-08
4.32967002491e-07
0.00088912477608
-1.19449282509e-07
4.33173453762e-07
0.00088912602317
-1.60162125792e-07
4.32433536421e-07
0.00088912094215
-2.05844357087e-07
4.32557418517e-07
0.000889157055496
-2.51997433425e-07
4.3165365389e-07
0.000889136085516
-3.06778487914e-07
4.31013859921e-07
0.000889155183755
-3.62252495878e-07
4.30518273473e-07
0.000889191570417
-4.30917218948e-07
4.27899688672e-07
0.000889203389453
-5.00503572227e-07
4.28515888869e-07
0.00088921830112
-5.83792236773e-07
4.22443647905e-07
0.000889323620625
-6.62246923033e-07
4.24009101211e-07
0.000889304110392
-6.97029957858e-07
4.15071421116e-07
0.000889423679231
-7.21674510619e-07
4.17734707239e-07
0.000889164471502
4.14727619644e-07
0.000886992406139
-4.09254065649e-08
3.63897238901e-07
0.000889107851893
-7.92022503451e-08
3.63637767263e-07
0.000889111304342
-1.1972415618e-07
3.63688127403e-07
0.000889112539146
-1.60383315302e-07
3.63128332755e-07
0.000889107364574
-2.06078747509e-07
3.63007935547e-07
0.000889143406281
-2.52006927907e-07
3.62356060394e-07
0.000889122233577
-3.06720716707e-07
3.61577364114e-07
0.000889141276807
-3.61836701797e-07
3.61258008497e-07
0.00088917726684
-4.3030137546e-07
3.59100753029e-07
0.000889189088309
-4.99717259656e-07
3.59519625434e-07
0.000889203327707
-5.82842423703e-07
3.55591761364e-07
0.00088930856401
-6.61700498504e-07
3.56582246479e-07
0.000889287616752
-6.96040425475e-07
3.51985770939e-07
0.000889410522251
-7.23490793369e-07
3.53533121914e-07
0.000889165382175
3.5347748091e-07
0.000887029123646
-4.11013052787e-08
3.0788463408e-07
0.000889095176378
-7.95197665018e-08
3.07665986244e-07
0.000889098627379
-1.20251313836e-07
3.07632708964e-07
0.000889099881456
-1.61091437455e-07
3.07192831766e-07
0.000889094715012
-2.07106746308e-07
3.06965844256e-07
0.00088913082071
-2.5330115476e-07
3.06465380267e-07
0.000889109665604
-3.08481950846e-07
3.05707755263e-07
0.000889128898494
-3.64001690914e-07
3.05428778092e-07
0.00088916493297
-4.3292086142e-07
3.03681390175e-07
0.00088917722765
-5.02674283492e-07
3.03746298911e-07
0.000889191467901
-5.85378659249e-07
3.01057504874e-07
0.000889297752936
-6.63891632471e-07
3.01268447866e-07
0.000889276698753
-6.945832586e-07
2.98747170844e-07
0.000889398692471
-7.18186464742e-07
3.0135536718e-07
0.000889142122579
3.0595534266e-07
0.000886981439605
-4.1185377141e-08
2.52056765263e-07
0.000889059489057
-7.96244738564e-08
2.51873228518e-07
0.000889062900601
-1.20405932875e-07
2.51796476518e-07
0.00088906415332
-1.61241350676e-07
2.51453081692e-07
0.000889058919353
-2.07315697658e-07
2.51191382932e-07
0.000889095019052
-2.53489407189e-07
2.50816010905e-07
0.000889073748272
-3.0874965781e-07
2.50163128834e-07
0.000889092990534
-3.64306356564e-07
2.49970281416e-07
0.000889128805746
-4.33400087217e-07
2.4869585471e-07
0.000889141148226
-5.03504701154e-07
2.48699942656e-07
0.000889154994492
-5.8666488201e-07
2.47185150037e-07
0.000889261393964
-6.66322776914e-07
2.47318825079e-07
0.000889239975106
-6.97988225222e-07
2.46097964707e-07
0.000889363475101
-7.22461813677e-07
2.47150632663e-07
0.000889114850137
2.49346599141e-07
0.000886971773208
-4.13154763814e-08
2.05401456482e-07
0.000889040089685
-7.98508268003e-08
2.05245970483e-07
0.000889043494865
-1.20755199751e-07
2.051537342e-07
0.00088904475689
-1.61685798886e-07
2.04875601002e-07
0.000889039516099
-2.07898000752e-07
2.04616434214e-07
0.000889075649279
-2.54158392371e-07
2.04305749512e-07
0.000889054375593
-3.09517673801e-07
2.03744631481e-07
0.000889073709521
-3.6508964329e-07
2.03539054257e-07
0.000889109530266
-4.34038152994e-07
2.02536171061e-07
0.000889122062406
-5.03790778175e-07
2.02323161174e-07
0.000889135852029
-5.85999294656e-07
2.0134694215e-07
0.000889242600387
-6.64537740943e-07
2.01191352702e-07
0.000889221089178
-6.93970832117e-07
2.00676088856e-07
0.000889343909939
-7.16858261569e-07
2.02741875244e-07
0.000889089508491
2.07713552082e-07
0.00088693413639
-4.14067987313e-08
1.58748897308e-07
0.000889061394505
-7.99808807841e-08
1.58624486409e-07
0.000889064761314
-1.2094131838e-07
1.58538365113e-07
0.000889066027552
-1.61906268748e-07
1.58328331793e-07
0.000889060730963
-2.08190950059e-07
1.58112270423e-07
0.000889096864431
-2.54507038634e-07
1.57886498545e-07
0.000889075513023
-3.09984677988e-07
1.57467791138e-07
0.000889094850281
-3.65705727717e-07
1.57331478477e-07
0.000889130560773
-4.34906382442e-07
1.56653142118e-07
0.000889143116329
-5.05049622006e-07
1.56462536644e-07
0.00088915671109
-5.87786978436e-07
1.55997387236e-07
0.000889263579005
-6.67214612516e-07
1.55871057222e-07
0.00088924202108
-6.97556911387e-07
1.55640301512e-07
0.000889365610918
-7.20599575004e-07
1.56430804761e-07
0.000889115286858
1.58491197692e-07
0.000886968255053
-4.14869453409e-08
1.17477992667e-07
0.00088902522638
-8.01157399822e-08
1.1738132594e-07
0.00088902858969
-1.21136761543e-07
1.17307419486e-07
0.000889029859561
-1.62140592952e-07
1.17147656072e-07
0.000889024557505
-2.08465008234e-07
1.16973152511e-07
0.000889060704537
-2.54779626046e-07
1.16795589579e-07
0.000889039346934
-3.1021792271e-07
1.16475860177e-07
0.000889058717313
-3.65827543244e-07
1.16345677383e-07
0.000889094417121
-4.34778158776e-07
1.15852020397e-07
0.000889107036161
-5.04528342309e-07
1.15616723727e-07
0.000889120557312
-5.86529300993e-07
1.15332572421e-07
0.00088922753725
-6.65129826364e-07
1.15158796257e-07
0.000889205893495
-6.94216020296e-07
1.15156981739e-07
0.000889329016779
-7.16660653675e-07
1.16493625597e-07
0.000889075892235
1.19779317827e-07
0.000886923038739
-4.1558924142e-08
7.62224988136e-08
0.000889030401059
-8.02195551672e-08
7.61585691421e-08
0.00088903373281
-1.21281530579e-07
7.61077181204e-08
0.000889035008494
-1.62319560661e-07
7.60073210984e-08
0.000889029666632
-2.08698520797e-07
7.58950137401e-08
0.000889065815839
-2.55069486425e-07
7.57885253229e-08
0.000889044411779
-3.10598695897e-07
7.55943013362e-08
0.000889063783866
-3.66328181874e-07
7.55251625787e-08
0.000889099429511
-4.35462283912e-07
7.52436854392e-08
0.000889112064853
-5.05486339801e-07
7.51003604694e-08
0.000889125505708
-5.87853275532e-07
7.49867952355e-08
0.000889232554503
-6.66984122487e-07
7.48848147593e-08
0.000889210924895
-6.96626000125e-07
7.48790836249e-08
0.000889334404729
-7.18997964645e-07
7.53153972479e-08
0.000889083201832
7.64577097358e-08
0.000886934089985
-4.15944918585e-08
3.74163792094e-08
0.000889029123587
-8.02791520855e-08
3.73837952226e-08
0.000889032457694
-1.21364538052e-07
3.73562269456e-08
0.000889033731587
-1.62414330387e-07
3.7307065004e-08
0.000889028389551
-2.08798326874e-07
3.7250574805e-08
0.000889064541277
-2.55151741517e-07
3.71980747692e-08
0.000889043134281
-3.1063482976e-07
3.7102077859e-08
0.000889062514277
-3.66277229486e-07
3.70644897667e-08
0.0008890981521
-4.35251033129e-07
3.69266688176e-08
0.000889110805067
-5.05060544401e-07
3.68448245434e-08
0.000889124228363
-5.87061416631e-07
3.67890544815e-08
0.000889231284612
-6.65776751967e-07
3.67304972406e-08
0.000889209605965
-6.94859112615e-07
3.67675524285e-08
0.000889332867963
-7.17055331344e-07
3.72254324563e-08
0.000889080516053
3.83323034571e-08
0.000886929035251
-4.16283730454e-08
0.000889025557076
-8.0322246447e-08
0.000889028873433
-1.21419986224e-07
0.000889030152707
-1.62480667159e-07
0.000889024792037
-2.0888236768e-07
0.000889060947856
-2.55255979101e-07
0.000889039522967
-3.10770564125e-07
0.000889058906531
-3.66456029251e-07
0.000889094526656
-4.35492547321e-07
0.00088910718814
-5.05398228318e-07
0.000889120599022
-5.87528723427e-07
0.000889227669321
-6.66418292542e-07
0.000889206000064
-6.95684729592e-07
0.000889329365413
-7.17834588792e-07
0.000889077574732
0.000886927171076
-4.35039402892e-08
6.203381974e-07
0.000886341336108
-8.27189662328e-08
6.19511830691e-07
0.000886342764292
-1.27064076316e-07
6.21146555397e-07
0.0008863502611
-1.66899633884e-07
6.18653768807e-07
0.000886338636417
-2.16927401056e-07
6.21868812017e-07
0.000886388470407
-2.59726378526e-07
6.17802349266e-07
0.000886353972245
-3.16179989272e-07
6.21945526328e-07
0.000886397234643
-3.64625968539e-07
6.17047637886e-07
0.000886408137116
-4.22096938919e-07
6.19483811064e-07
0.000886456765475
-4.7842244341e-07
6.1638770733e-07
0.000886428027609
-5.10161565844e-07
6.08139367347e-07
0.000886577955965
-5.68967186331e-07
6.15133851425e-07
0.000886504940982
-4.83535683641e-07
5.69370032368e-07
0.000886678640928
-4.73693949513e-07
5.95088181049e-07
0.000886542148173
4.73296340799e-07
0.000882921280213
-4.27737747824e-08
5.66000323518e-07
0.00088917276905
-8.22928152034e-08
5.65079592203e-07
0.000889175635661
-1.2477222268e-07
5.66804179935e-07
0.000889180124534
-1.65921234624e-07
5.64142643818e-07
0.000889173097625
-2.12991311034e-07
5.67420844269e-07
0.000889216015014
-2.57980610751e-07
5.63286256302e-07
0.000889190977478
-3.11146111295e-07
5.67261905673e-07
0.000889220820378
-3.6182796025e-07
5.62679989145e-07
0.00088924960498
-4.19242303143e-07
5.64623801818e-07
0.000889274442822
-4.74572806156e-07
5.62219657095e-07
0.000889276815889
-5.21562772594e-07
5.5525558472e-07
0.00088938875405
-5.68842934856e-07
5.60442835309e-07
0.000889362392678
-5.49212117469e-07
5.32224307815e-07
0.000889476343007
-5.95538655956e-07
5.48317481536e-07
0.000889339359652
4.82699851856e-07
0.000886542147731
-4.1877360257e-08
5.68632395742e-07
0.000889358354678
-8.09308983817e-08
5.67872883531e-07
0.000889361974166
-1.21853574024e-07
5.69084087876e-07
0.000889364855805
-1.62742115351e-07
5.66995802573e-07
0.000889360240358
-2.07388659254e-07
5.69132240282e-07
0.000889399493473
-2.51879561205e-07
5.6599454219e-07
0.000889379281099
-3.01594016357e-07
5.68069853582e-07
0.000889402261607
-3.50509365765e-07
5.64719686347e-07
0.000889439676054
-4.03486940881e-07
5.64196292156e-07
0.00088945247416
-4.54118196026e-07
5.62291996949e-07
0.000889468965003
-4.98486791301e-07
5.53757542417e-07
0.000889559680324
-5.39086444188e-07
5.56556190701e-07
0.000889549022402
-5.33222724997e-07
5.37656920129e-07
0.000889617002423
-5.69890068895e-07
5.67478229717e-07
0.000889476323752
5.67634492727e-07
0.000886678607026
-4.18363434881e-08
5.19084900047e-07
0.000889298176267
-8.08998386228e-08
5.18465732372e-07
0.000889301935311
-1.21765991927e-07
5.19268265771e-07
0.000889304520166
-1.62781561505e-07
5.17689594098e-07
0.000889300362246
-2.07521310064e-07
5.18966752784e-07
0.000889338995898
-2.52370400372e-07
5.16742426215e-07
0.000889319690675
-3.02708395044e-07
5.17605442158e-07
0.000889341736804
-3.52609430799e-07
5.15533700327e-07
0.00088938076497
-4.07938682835e-07
5.1404038954e-07
0.000889392526593
-4.61187388078e-07
5.13426025179e-07
0.000889411782383
-5.11060590776e-07
5.06030435442e-07
0.000889501691483
-5.57988089309e-07
5.09203185699e-07
0.000889492340332
-5.61434215156e-07
4.96634146912e-07
0.000889548997422
-6.1563977551e-07
5.19737802441e-07
0.000889362354977
5.08360769171e-07
0.000886504896652
-4.1888766545e-08
4.69009319974e-07
0.000889310841057
-8.09389978855e-08
4.68492577471e-07
0.000889314589622
-1.21802448518e-07
4.68949305421e-07
0.000889317107619
-1.62714242868e-07
4.6774211933e-07
0.000889312970994
-2.07404382763e-07
4.68318271751e-07
0.000889351461021
-2.51960321144e-07
4.6670317936e-07
0.000889332164248
-3.02147379861e-07
4.6663062336e-07
0.00088935401523
-3.51441845328e-07
4.65251504354e-07
0.000889392893994
-4.06392309858e-07
4.63075943517e-07
0.000889404490954
-4.58803673635e-07
4.62814116912e-07
0.000889423060269
-5.07887753404e-07
4.56527056505e-07
0.00088951285011
-5.55185738621e-07
4.58912638076e-07
0.000889501635152
-5.56238254046e-07
4.51850071975e-07
0.000889559595985
-6.08642221961e-07
4.7230869207e-07
0.000889388647521
4.76178522748e-07
0.000886577824107
-4.20715192768e-08
4.14055603972e-07
0.000889217672926
-8.12742046493e-08
4.13611442298e-07
0.000889221429882
-1.22398726494e-07
4.1386515479e-07
0.000889223944106
-1.63536296203e-07
4.12937762664e-07
0.000889219858952
-2.08698029024e-07
4.13162907435e-07
0.000889258386831
-2.53638894999e-07
4.120068505e-07
0.000889239193747
-3.04706156701e-07
4.1160803412e-07
0.000889261277849
-3.54770832006e-07
4.10703469167e-07
0.000889300322391
-4.11179393134e-07
4.08677498798e-07
0.000889312682283
-4.65091957078e-07
4.08502466483e-07
0.00088933151719
-5.15276488968e-07
4.03722135341e-07
0.000889423006784
-5.63703780933e-07
4.05270441151e-07
0.000889411673292
-5.63176783981e-07
4.00826031533e-07
0.000889468829845
-6.16871532562e-07
4.16573669708e-07
0.000889276674546
4.19449582185e-07
0.000886427881404
-4.2189206303e-08
3.56689509759e-07
0.00088919989036
-8.141302353e-08
3.56292864356e-07
0.000889203582866
-1.22582203522e-07
3.56400056158e-07
0.000889206087978
-1.63671611848e-07
3.55652545241e-07
0.000889201909279
-2.08879419153e-07
3.55624765942e-07
0.000889240405374
-2.53726496621e-07
3.54743248916e-07
0.000889221061498
-3.04863974145e-07
3.54161217869e-07
0.000889243139195
-3.54831717958e-07
3.53518801195e-07
0.00088928189259
-4.11345015902e-07
3.51780213697e-07
0.000889294334947
-4.65344234557e-07
3.51714806942e-07
0.000889312584232
-5.15880732919e-07
3.48398269438e-07
0.000889404340533
-5.65603410014e-07
3.49570593358e-07
0.000889392322983
-5.65584569555e-07
3.47477083908e-07
0.000889452240376
-6.19976674891e-07
3.58783555916e-07
0.000889274187127