/*--------------------------------*- C++ -*----------------------------------*\
| =========                 |                                                 |
| \\      /  F ield         | OpenFOAM: The Open Source CFD Toolbox           |
|  \\    /   O peration     | Version:  2406                                  |
|   \\  /    A nd           | Website:  www.openfoam.com                      |
|    \\/     M anipulation  |                                                 |
\*---------------------------------------------------------------------------*/
FoamFile
{
    version     2.0;
    format      ascii;
    arch        "LSB;label=32;scalar=64";
    class       volVectorField;
    location    "0.01";
    object      U;
}
// * * * * * * * * * * * * * * * * * * * * * * * * * * * * * * * * * * * * * //

dimensions      [0 1 -1 0 0 0 0];

internalField   nonuniform List<vector> 
29767
(
(9.33596819693e-07 0.000502989192744 0.798941819101)
(-4.94938089207e-05 0.000502523976694 0.798941360372)
(-4.26028286952e-05 0.000503511304683 0.798946212973)
(-0.000102760516051 0.00050206311595 0.798944396833)
(-8.79771028898e-05 0.000503976296572 0.79895685684)
(-0.00017126610046 0.000501492702314 0.798951754087)
(-0.000140492747335 0.000503482862444 0.798979440999)
(-0.00026932141558 0.000500589798127 0.798966116575)
(-0.000209524768643 0.000497034916832 0.799027287498)
(-0.000422625209437 0.000499456328384 0.798994190077)
(-0.000317265092649 0.000456760041716 0.799130939076)
(-0.000662563022049 0.000502778317996 0.799052256434)
(-0.000534941599801 0.00023637587026 0.799354599448)
(-0.000931520812848 0.000559569966112 0.79914374664)
(-0.00118220247902 0.00118211574885 0.796638487745)
(-3.20036122725e-06 0.000910170981304 0.80010276042)
(-3.18510067814e-05 0.000909670011064 0.800102845302)
(-3.57069082593e-05 0.000910929348389 0.800105000449)
(-6.89171931336e-05 0.000909471787844 0.800105217177)
(-7.12025277392e-05 0.000911982864434 0.800110659402)
(-0.000115459144741 0.000909914168789 0.800110770507)
(-0.000114812231654 0.000913228284795 0.800122628281)
(-0.000182226852313 0.00091224668555 0.80012200769)
(-0.000176415891327 0.00091362365101 0.800148026822)
(-0.000296327978385 0.0009211132998 0.800145278352)
(-0.000277882712529 0.000906438536797 0.800206520963)
(-0.000542267219547 0.000957270302824 0.800197254103)
(-0.000464766774484 0.00086341782215 0.800358074825)
(-0.00121783145467 0.0012175605499 0.800186885495)
(-0.000559675042435 0.000931186682426 0.799143769597)
(-5.80012206923e-06 0.000454292621161 0.800300642752)
(-2.90928537313e-05 0.000453909204985 0.800300928696)
(-3.86689618345e-05 0.00045468449275 0.800302602651)
(-6.52488916007e-05 0.000453607615013 0.800303528061)
(-7.49597739433e-05 0.000454922902578 0.800307754521)
(-0.000109611829623 0.000453487278729 0.800309468493)
(-0.00011942317837 0.000454358093232 0.800318707176)
(-0.000171216265083 0.000453951150282 0.800321334941)
(-0.000179868884205 0.000451510294051 0.800341180534)
(-0.000269779170285 0.000456498004774 0.800345370029)
(-0.000268770445909 0.000440273572708 0.800393223019)
(-0.000454659690618 0.000464285070193 0.800399385511)
(-0.000392221447956 0.000391801321125 0.800540649292)
(-0.000863714959566 0.000464380106967 0.800358101803)
(-0.00023649485275 0.000534457280454 0.799354629243)
(-6.35387343464e-06 0.000491187888359 0.800132709989)
(-2.8626056685e-05 0.000490900730648 0.800133045538)
(-3.93840849001e-05 0.00049145825994 0.800134613678)
(-6.49110893533e-05 0.000490711787485 0.800135708027)
(-7.60923413155e-05 0.000491598326072 0.800139722866)
(-0.000109865079067 0.000490735015293 0.800141799943)
(-0.000121737527743 0.000491104576197 0.800150803997)
(-0.000173940529619 0.000491152472357 0.800154201127)
(-0.00018594846974 0.000488384466322 0.800175019977)
(-0.00028100973598 0.00049200274142 0.800179973294)
(-0.000288092975713 0.000478415968925 0.800232370364)
(-0.000492093604447 0.000491493938848 0.800241244741)
(-0.000464709491256 0.000454061475661 0.800399400428)
(-0.000957563822424 0.000541678066675 0.800197289409)
(-0.000502893869742 0.000661791388964 0.799052288481)
(-6.46909602057e-06 0.000283250548916 0.800128868401)
(-2.84099668779e-05 0.000283044222807 0.800129205453)
(-3.9327311522e-05 0.000283324891657 0.800130732976)
(-6.45624161879e-05 0.000282836008479 0.800131812488)
(-7.5661920352e-05 0.000283160366592 0.80013573133)
(-0.000109268490342 0.00028271604142 0.800137702514)
(-0.000120341768092 0.00028241119126 0.80014653796)
(-0.000172581499565 0.00028293451741 0.800149528264)
(-0.000181960906055 0.00028052838154 0.800170080228)
(-0.00027715513368 0.000284194918543 0.800173715543)
(-0.000277525368535 0.000276794617487 0.800225749281)
(-0.00047901658569 0.000287361757781 0.800232372448)
(-0.000440696582755 0.000268045794723 0.800393239314)
(-0.000906729181904 0.000277174425675 0.800206555696)
(-0.000456874084323 0.000316355671487 0.799130966002)
(-6.60914816935e-06 0.000285369790332 0.800074322307)
(-2.84970713704e-05 0.000285202929528 0.80007466109)
(-3.96593557729e-05 0.000285356929063 0.800076176158)
(-6.49886077346e-05 0.000284993460888 0.800077205854)
(-7.62756403982e-05 0.000285096163181 0.800081054151)
(-0.000110428990065 0.000284757918655 0.800082961369)
(-0.000121601695707 0.000284199553648 0.800091892064)
(-0.000175536768235 0.000284358320253 0.800094908447)
(-0.000184948594665 0.000281789639902 0.800116051229)
(-0.00028410399029 0.000283201006316 0.800120240094)
(-0.000284924284001 0.000276254820343 0.800173714082)
(-0.000492598642581 0.000280110262391 0.800179974781)
(-0.000456911949276 0.000268880970387 0.800345386502)
(-0.000921393609326 0.00029542977793 0.80014531371)
(-0.00049956530808 0.000421453250502 0.798994221)
(-6.63014076744e-06 0.000184028378268 0.800071180839)
(-2.84127066002e-05 0.000183905772324 0.800071519858)
(-3.95526425987e-05 0.000183956933753 0.80007305125)
(-6.48492823044e-05 0.000183718650201 0.800074128266)
(-7.59581728484e-05 0.000183666279574 0.800078104788)
(-0.000110213157508 0.000183535485611 0.800080025319)
(-0.000120797989433 0.00018305224279 0.800089086606)
(-0.000175015679837 0.000183510282811 0.800091825735)
(-0.000183056966432 0.000182043968812 0.800113110009)
(-0.000282689612051 0.000183932133086 0.800116047434)
(-0.000281254229833 0.000180947421451 0.800170074898)
(-0.000488978840374 0.000184934130102 0.800175016706)
(-0.000451916978618 0.000178863602814 0.800341204648)
(-0.000913904288782 0.000175423023354 0.800148061754)
(-0.000497142449496 0.000208243746597 0.799027310425)
(-6.69263935441e-06 0.00017656000071 0.800049359245)
(-2.84943117159e-05 0.000176449936165 0.800049698899)
(-3.97320538626e-05 0.000176446808512 0.800051234466)
(-6.5143203177e-05 0.00017623847999 0.800052311349)
(-7.632445698e-05 0.000176092607585 0.800056320655)
(-0.000110935966876 0.000175902554844 0.800058248507)
(-0.000121552002478 0.000175316686689 0.800067436892)
(-0.000176523813712 0.000175348901931 0.800070184713)
(-0.000184525719916 0.000173846302858 0.800091824519)
(-0.00028525917522 0.000174365729055 0.800094904669)
(-0.000283658678816 0.000171417431174 0.80014952196)
(-0.000491742720385 0.000172774113153 0.800154197414)
(-0.000454355969883 0.000170057838813 0.800321346436)
(-0.000912515925424 0.000181070704486 0.800122040614)
(-0.000500690940129 0.000267808760517 0.798966141797)
(-6.72101854071e-06 0.000120862868846 0.800046764856)
(-2.85159245825e-05 0.000120779864114 0.800047105317)
(-3.97481307726e-05 0.000120759871595 0.800048642908)
(-6.51830550077e-05 0.000120629761609 0.8000497115)
(-7.62694295532e-05 0.000120503956213 0.800053724849)
(-0.000110966254693 0.000120442637313 0.800055612106)
(-0.000121330018198 0.000120075217476 0.800064804866)
(-0.000176485483571 0.000120290584625 0.800067433023)
(-0.000184059113506 0.000119542476852 0.800089080837)
(-0.000285093675345 0.000120344459447 0.800091883592)
(-0.000283129458173 0.000119092009543 0.800146526455)
(-0.000491691822557 0.000120486588939 0.800150794446)
(-0.000454765190145 0.000118181490359 0.80031870996)
(-0.000913501921043 0.000113585638114 0.800122655788)
(-0.000503584535752 0.000138908148342 0.798979454214)
(-6.75847483592e-06 0.000110494258739 0.800037472967)
(-2.85947324953e-05 0.000110414815695 0.80003781623)
(-3.98785249084e-05 0.000110373164667 0.800039360147)
(-6.53954174448e-05 0.000110240674362 0.800040433241)
(-7.65077528085e-05 0.000110082759357 0.800044468116)
(-0.000111362400611 0.000109956858248 0.800046360371)
(-0.000121703819628 0.00010957076999 0.800055609562)
(-0.000177077310214 0.00010953981532 0.800058242826)
(-0.000184544544334 0.000108826305904 0.800080017794)
(-0.000285652748107 0.000109044401807 0.800082951456)
(-0.000283430622235 0.00010789530163 0.800137689481)
(-0.000491315866083 0.000108492719404 0.800141789487)
(-0.000453882958121 0.00010824778122 0.800309469819)
(-0.000910174084881 0.000114097686113 0.800110799426)
(-0.000501584538293 0.000169488745302 0.798951772832)
(-6.78315019646e-06 7.53844594817e-05 0.800035597535)
(-2.86360409247e-05 7.53247018217e-05 0.800035942022)
(-3.99209200152e-05 7.52938313976e-05 0.800037485189)
(-6.54721797412e-05 7.52102832253e-05 0.800038554019)
(-7.65521111471e-05 7.51037684594e-05 0.800042589902)
(-0.000111478119634 7.50501935969e-05 0.800044465093)
(-0.000121748989765 7.48213242183e-05 0.800053718457)
(-0.000177251868873 7.48759688125e-05 0.800056310822)
(-0.000184658376062 7.45183697125e-05 0.80007809242)
(-0.000285977020716 7.48374829099e-05 0.800081037485)
(-0.000283863446774 7.42355560793e-05 0.800135712295)
(-0.000492172119697 7.46672838174e-05 0.800139706206)
(-0.000455317455147 7.35448856778e-05 0.800307748541)
(-0.000912245955996 6.98040104813e-05 0.800110681912)
(-0.000504068679245 8.61689863321e-05 0.79895685989)
(-6.80257145368e-06 6.41703300603e-05 0.800031543617)
(-2.86851690807e-05 6.41178680763e-05 0.800031889492)
(-3.99926582031e-05 6.40837979345e-05 0.800033434043)
(-6.55852238533e-05 6.40043745859e-05 0.800034504457)
(-7.66677831265e-05 6.39023032161e-05 0.800038548232)
(-0.000111645783497 6.38262108739e-05 0.800040425678)
(-0.000121881524452 6.36264119466e-05 0.800049700905)
(-0.000177403984602 6.35947387287e-05 0.800052298279)
(-0.000184713074939 6.33128923393e-05 0.800074113173)
(-0.000285875426434 6.34590954867e-05 0.800077185178)
(-0.000283535477839 6.30484262525e-05 0.800131791401)
(-0.000491278829244 6.34017275326e-05 0.800135689787)
(-0.000453990080094 6.3749246793e-05 0.800303520611)
(-0.000909719657227 6.74227152939e-05 0.800105241743)
(-0.000502144304921 0.000100812131249 0.798944407649)
(-6.82257250566e-06 3.85039022735e-05 0.800030473379)
(-2.87225789608e-05 3.84672597829e-05 0.800030821026)
(-4.00343968337e-05 3.84466990994e-05 0.80003236451)
(-6.56536522807e-05 3.8397911636e-05 0.800033434172)
(-7.67304445795e-05 3.83355844951e-05 0.800037478311)
(-0.000111755104665 3.82955774504e-05 0.800039350682)
(-0.000121983796687 3.81762668977e-05 0.80004862946)
(-0.000177584824626 3.81687022117e-05 0.800051217557)
(-0.000184924394873 3.80002251584e-05 0.800073031611)
(-0.000286215414697 3.81129551341e-05 0.800076149025)
(-0.000284006468262 3.77959266319e-05 0.800130705967)
(-0.000492012876427 3.78574979813e-05 0.800134588852)
(-0.000455063358837 3.7153440764e-05 0.800302587458)
(-0.000911178917964 3.42084373435e-05 0.800105017872)
(-0.000503592834728 4.06632624779e-05 0.798946205249)
(-6.82903533292e-06 2.70805350779e-05 0.800028917927)
(-2.87423822246e-05 2.70582536797e-05 0.800029266308)
(-4.00620000525e-05 2.70430747003e-05 0.800030809384)
(-6.56963263916e-05 2.70119109781e-05 0.800031879811)
(-7.6770326275e-05 2.69725308906e-05 0.800035925878)
(-0.000111806258022 2.69453665518e-05 0.800037799476)
(-0.000122011630715 2.68796319085e-05 0.800047085371)
(-0.000177594987762 2.68757835683e-05 0.800049676974)
(-0.000184876986656 2.68077151112e-05 0.800071496122)
(-0.000286062919642 2.69042785793e-05 0.800074631332)
(-0.000283723150371 2.68345576063e-05 0.800129176109)
(-0.000491448841711 2.70588577419e-05 0.80013301876)
(-0.000454275798546 2.75364630191e-05 0.800300911987)
(-0.00090990351318 3.03030010904e-05 0.800102864843)
(-0.000502593912754 4.74782949755e-05 0.798941362056)
(-6.84052325857e-06 5.17416090046e-06 0.800028574568)
(-2.87600377951e-05 5.16577666221e-06 0.800028923769)
(-4.00807216728e-05 5.16198942967e-06 0.800030466649)
(-6.57241660155e-05 5.15262733619e-06 0.80003153718)
(-7.67971052025e-05 5.14098181019e-06 0.800035583743)
(-0.000111848771549 5.13218356709e-06 0.800037456446)
(-0.000122055514847 5.10588035155e-06 0.80004674413)
(-0.000177665683915 5.09535948833e-06 0.800049334694)
(-0.000184963717442 5.04468956231e-06 0.800071153563)
(-0.000286197288679 5.03536935615e-06 0.800074287599)
(-0.000283905539924 4.91143868593e-06 0.800128833701)
(-0.000491718436588 4.80407081491e-06 0.800132676853)
(-0.000454653278397 4.26159525169e-06 0.800300618344)
(-0.000910404671091 1.6782303023e-06 0.800102772611)
(-0.000503059482014 -2.90684694078e-06 0.798941800512)
(-4.51200668242e-08 0.000395195710518 0.79876163338)
(-4.62256768926e-05 0.000394848471486 0.798760802082)
(-4.17003438478e-05 0.00039578475005 0.798765965352)
(-9.35241599052e-05 0.000394700307097 0.79876317256)
(-8.38922343746e-05 0.000396660912623 0.798776408814)
(-0.000147159251095 0.000394767243311 0.798769470316)
(-0.000129182457477 0.000397732384187 0.798799148966)
(-0.000208769686925 0.000395056326047 0.798782416403)
(-0.000180826630944 0.000398108176435 0.798849110162)
(-0.00027536654727 0.000395336260102 0.798809237478)
(-0.000242800487687 0.000393606226962 0.79896163389)
(-0.000325604926818 0.000396519234342 0.798873347602)
(-0.000318849089395 0.000353664025227 0.799215162389)
(-0.000252306099368 0.000389301215837 0.798972826966)
(-0.000349429679094 0.000349354989871 0.796350647368)
(-5.28081103496e-06 0.000388933903267 0.80008895679)
(-3.96942028881e-05 0.000388432550683 0.800088934085)
(-4.68987461723e-05 0.000389597918134 0.80009240225)
(-8.4648808531e-05 0.000388139695907 0.800092473693)
(-9.04289213496e-05 0.00039044244076 0.800101248273)
(-0.000135105520766 0.000388276069676 0.800101159811)
(-0.000138748834434 0.000391423226158 0.800120597836)
(-0.000194095593993 0.000389409497033 0.800119642675)
(-0.000195476325622 0.00039217050126 0.800163723872)
(-0.000263914291713 0.000392970918817 0.800159837918)
(-0.000264921303781 0.000390649577973 0.800266847764)
(-0.000343602871638 0.000400914744955 0.800249407419)
(-0.00034442006899 0.000372227734635 0.800514811588)
(-0.000412040841584 0.0004116787399 0.800225233269)
(-0.000389401803043 0.000251965174561 0.798972842227)
(-8.2735625957e-06 0.000370709055573 0.800394920828)
(-3.61679721645e-05 0.000370294308426 0.800395327005)
(-4.99177749789e-05 0.000371038909951 0.800398073664)
(-8.01389992555e-05 0.000369854820987 0.80039958515)
(-9.40451437416e-05 0.000371167139985 0.800406467886)
(-0.000129204841683 0.000369422281601 0.800409546819)
(-0.00014346908939 0.000370657511046 0.800424540382)
(-0.000186497876148 0.000368918138044 0.80043016877)
(-0.000201348629606 0.000367747065672 0.800464147031)
(-0.000255121685334 0.000368053597473 0.800472537923)
(-0.000269409823742 0.000359912949623 0.800550694621)
(-0.000332710697274 0.000364322710642 0.800551946893)
(-0.000335831651071 0.000335235692975 0.800723162163)
(-0.000372635826554 0.000343876847815 0.800514807629)
(-0.000353782265859 0.000318326461574 0.79921516434)
(-8.89102668119e-06 0.000356898665639 0.80023487349)
(-3.55204819725e-05 0.00035657415401 0.80023534852)
(-5.05806300439e-05 0.000357137898235 0.800237972211)
(-7.94860915933e-05 0.000356263698839 0.80023973308)
(-9.49557062659e-05 0.000357204994328 0.80024634676)
(-0.000128864189533 0.000356013004381 0.800250007471)
(-0.000145148173694 0.000356726483357 0.800264609357)
(-0.000187586007078 0.000355770786983 0.800271463097)
(-0.000205298258033 0.000354529565947 0.800304605195)
(-0.000260983147484 0.000354856521324 0.800316243414)
(-0.000280410175629 0.000347895974538 0.800394130591)
(-0.000351047548996 0.000350219419033 0.800398513573)
(-0.000364915097647 0.000331879680935 0.800551938146)
(-0.000401310679869 0.000342782109739 0.800249397704)
(-0.000396630253258 0.000324764985297 0.798873348655)
(-9.08922866513e-06 0.000283901270726 0.800240718778)
(-3.543119595e-05 0.000283657319641 0.800241181876)
(-5.08206925459e-05 0.000283951875734 0.800243785035)
(-7.94698521651e-05 0.000283334430845 0.800245520193)
(-9.51356356563e-05 0.000283745691962 0.800252099466)
(-0.000128872864803 0.000282966045472 0.800255643597)
(-0.000145000167314 0.000282973854553 0.800270221541)
(-0.000187504613352 0.000282493205212 0.800276530576)
(-0.000204280319472 0.000280943605704 0.800309519491)
(-0.000260255812813 0.000281693088141 0.800319188823)
(-0.000277962907316 0.000276952967896 0.800396446093)
(-0.000348725529376 0.00027940518953 0.800394102563)
(-0.000360503001196 0.000268403279125 0.800550656677)
(-0.000391039249875 0.000263932010423 0.800266803249)
(-0.000393719859842 0.000241807838778 0.798961591194)
(-9.20561690963e-06 0.000266725214203 0.800158348828)
(-3.54019664856e-05 0.000266527389483 0.800158810058)
(-5.09991609239e-05 0.000266694616581 0.800161436954)
(-7.96268008842e-05 0.000266211500924 0.80016323522)
(-9.55119132719e-05 0.000266350581289 0.800170001224)
(-0.000129592452989 0.000265731045269 0.800173659705)
(-0.000145968277272 0.000265402519691 0.800188666167)
(-0.000189514630879 0.000264946393041 0.800195019247)
(-0.000206611168377 0.000263249106872 0.800229166247)
(-0.000264620282117 0.000263385465612 0.800238322442)
(-0.000282699893582 0.000259020197205 0.800319166875)
(-0.000355680001597 0.000259751676261 0.800316193009)
(-0.000368632729558 0.000253888438987 0.800472476582)
(-0.000393345834542 0.000262670309637 0.800159778356)
(-0.000395442750706 0.000274082487442 0.798809188765)
(-9.2969483754e-06 0.000207080597952 0.80015099241)
(-3.54599769761e-05 0.000206930034612 0.80015142073)
(-5.11493959105e-05 0.000206993279469 0.800154044067)
(-7.9776877941e-05 0.000206667327127 0.800155719839)
(-9.56019913165e-05 0.00020665292496 0.800162380591)
(-0.000129755648778 0.000206295507473 0.800165777012)
(-0.000145808325969 0.000205922442412 0.800180673618)
(-0.000189601958746 0.000205827778591 0.800186561959)
(-0.000206053176071 0.00020465878348 0.800220606049)
(-0.000264484776333 0.000205216352649 0.800229117449)
(-0.00028195027983 0.000202888102867 0.800309450712)
(-0.000355354949797 0.000203912372595 0.800304505125)
(-0.000368334241726 0.00019996126214 0.800464024582)
(-0.000392546194364 0.000194092296476 0.800163606124)
(-0.000398219998175 0.000179429929882 0.798848994973)
(-9.38153816188e-06 0.000190836067702 0.800116259562)
(-3.55671027823e-05 0.000190700228956 0.800116684131)
(-5.13882005337e-05 0.000190694440815 0.800119333074)
(-8.01128854999e-05 0.000190408693104 0.800121007144)
(-9.60377377676e-05 0.000190279993213 0.800127729471)
(-0.000130441823775 0.000189935423403 0.800131119363)
(-0.000146535509813 0.000189453341183 0.80014618127)
(-0.00019080054374 0.000189192035752 0.800152078277)
(-0.000207223663803 0.000188000287969 0.800186537636)
(-0.000266181421664 0.000187916807945 0.800194944254)
(-0.000283493565127 0.000185911762754 0.8002764355)
(-0.000356586159524 0.000186003553383 0.800271339322)
(-0.00036948602509 0.000184913420092 0.800430034769)
(-0.000389774684354 0.000192484657145 0.800119508664)
(-0.000395159316373 0.000207114097119 0.798782297364)
(-9.42925518927e-06 0.000145851171931 0.800110754673)
(-3.56126527415e-05 0.00014574588266 0.800111137017)
(-5.14593695405e-05 0.000145717003038 0.800113792306)
(-8.02142889214e-05 0.000145523003824 0.800115396191)
(-9.61043196843e-05 0.00014539340554 0.800122120307)
(-0.000130608891063 0.000145200556511 0.80012538724)
(-0.000146579489963 0.000144850810136 0.80014045279)
(-0.000191055656837 0.000144800797515 0.800146107699)
(-0.000207308552279 0.000144081796601 0.800180579343)
(-0.000266629525736 0.000144245754996 0.800188523737)
(-0.000283966544321 0.000143283508764 0.800270061417)
(-0.000357538377129 0.000143441738502 0.800264422548)
(-0.000371223634615 0.0001417646409 0.80042434406)
(-0.000391792105445 0.000137039354887 0.800120384411)
(-0.000397839694683 0.000127453114157 0.79879893381)
(-9.48000672684e-06 0.000129767524514 0.800095571129)
(-3.57045220707e-05 0.000129670609671 0.800095946101)
(-5.16157417902e-05 0.000129616700787 0.800098614721)
(-8.0441146875e-05 0.000129436720827 0.80010020833)
(-9.63651042634e-05 0.000129271377608 0.80010696596)
(-0.000130987202884 0.000129062238074 0.800110222961)
(-0.000146935568592 0.000128695224529 0.800125369058)
(-0.00019154278721 0.000128529288208 0.800131022848)
(-0.000207681589645 0.000127856457724 0.80016565944)
(-0.000266956165818 0.000127704170829 0.80017349173)
(-0.000283952672784 0.000126992851849 0.800255456447)
(-0.000356816235399 0.000126997781721 0.800249792739)
(-0.000369976307779 0.000127339118185 0.800409323872)
(-0.00038863110936 0.000133213418112 0.800100932394)
(-0.000394866222541 0.000145216445351 0.798769261599)
(-9.51838852276e-06 9.48488157189e-05 0.800092367601)
(-3.57647353019e-05 9.47745353369e-05 0.800092699614)
(-5.16950421033e-05 9.47283841311e-05 0.800095379115)
(-8.0561334079e-05 9.46056486088e-05 0.800096914516)
(-9.64803939701e-05 9.44802824138e-05 0.800103675198)
(-0.000131185217917 9.43565687752e-05 0.800106852946)
(-0.000147110149039 9.41076694675e-05 0.800121995993)
(-0.000191868861372 9.4043792614e-05 0.800127532234)
(-0.000208018203455 9.36220383039e-05 0.800162168206)
(-0.00026755751815 9.35445170701e-05 0.800169746599)
(-0.000284717477446 9.31763225048e-05 0.800251828089)
(-0.000357999271653 9.30109298545e-05 0.800246051849)
(-0.000371719030621 9.21044856144e-05 0.800406164195)
(-0.000390802171138 8.84807090348e-05 0.800100919969)
(-0.000396764600062 8.19185061661e-05 0.79877607641)
(-9.5470599624e-06 7.87396274976e-05 0.800085587815)
(-3.582516478e-05 7.86770172413e-05 0.800085917384)
(-5.17849697196e-05 7.86295346545e-05 0.800088606172)
(-8.06895714209e-05 7.85238702679e-05 0.800090137419)
(-9.66142735162e-05 7.84072455802e-05 0.800096917403)
(-0.000131358504946 7.82895600811e-05 0.800100089542)
(-0.00014724388574 7.80789699974e-05 0.800115264937)
(-0.000192000426666 7.79899121784e-05 0.800120796061)
(-0.000208031407621 7.76723596022e-05 0.800155492009)
(-0.000267414986738 7.75432691937e-05 0.800162962167)
(-0.000284299033536 7.73970489974e-05 0.800245226832)
(-0.000357047950934 7.74318382269e-05 0.800239413978)
(-0.000370392430025 7.80877670937e-05 0.80039925897)
(-0.000388482952843 8.25722818776e-05 0.800092140617)
(-0.000394794852165 9.13953190052e-05 0.798762862285)
(-9.57588869041e-06 4.97276116615e-05 0.800083956147)
(-3.58747970792e-05 4.96838979068e-05 0.800084248599)
(-5.18481947114e-05 4.96509087581e-05 0.800086948662)
(-8.07836595253e-05 4.9582817292e-05 0.800088436802)
(-9.67145145656e-05 4.95043010468e-05 0.800095221348)
(-0.000131512037972 4.94317644383e-05 0.800098345733)
(-0.000147405615805 4.92914093405e-05 0.800113519266)
(-0.00019225361262 4.92348209329e-05 0.800118994203)
(-0.000208325042747 4.90140672159e-05 0.800153696164)
(-0.00026786926972 4.88861983197e-05 0.800161057217)
(-0.000284893345865 4.87182421855e-05 0.800243390097)
(-0.00035790669475 4.8497352906e-05 0.800237558967)
(-0.000371571116293 4.78400861421e-05 0.800397653331)
(-0.000389944482407 4.48114796698e-05 0.800091950312)
(-0.000395884227214 3.95826782097e-05 0.798765507352)
(-9.58755087061e-06 3.36189734993e-05 0.800081291206)
(-3.59018467207e-05 3.35924056263e-05 0.800081587103)
(-5.1886061602e-05 3.35699955546e-05 0.800084290121)
(-8.08362211991e-05 3.3528979358e-05 0.800085779579)
(-9.67651000417e-05 3.3481892057e-05 0.800092571447)
(-0.00013156988624 3.34406347548e-05 0.800095694664)
(-0.000147436691861 3.33678419809e-05 0.800110878439)
(-0.000192260450081 3.33468419835e-05 0.8001163492)
(-0.000208260209376 3.32609282992e-05 0.800151073134)
(-0.000267698473008 3.32327013108e-05 0.800158422326)
(-0.000284591108867 3.32749676005e-05 0.800240776408)
(-0.00035733229775 3.33872578157e-05 0.800234920665)
(-0.000370811198778 3.4039494018e-05 0.800394893671)
(-0.000388761147009 3.75430539836e-05 0.800088491691)
(-0.000394938035561 4.40243238203e-05 0.798760386236)
(-9.60295516497e-06 7.29609575335e-06 0.800080782965)
(-3.59237778417e-05 7.28685561689e-06 0.800081058358)
(-5.19116555075e-05 7.27920006264e-06 0.800083768162)
(-8.08718323373e-05 7.26678391062e-06 0.800085237302)
(-9.68027579248e-05 7.25069881942e-06 0.800092033169)
(-0.000131625117983 7.23581266811e-06 0.800095137752)
(-0.000147496732849 7.20321583653e-06 0.800110322979)
(-0.000192350624986 7.18205139097e-06 0.800115775459)
(-0.000208367994509 7.11772295863e-06 0.800150504808)
(-0.000267857895385 7.05669521354e-06 0.800157840121)
(-0.000284805093809 6.95252185096e-06 0.800240199803)
(-0.000357635505582 6.77738352887e-06 0.800234342872)
(-0.000371217660811 6.16600602382e-06 0.800394385194)
(-0.000389264046794 3.16124611064e-06 0.80008838363)
(-0.000395290459452 -2.1093841018e-06 0.798761052698)
(-6.11218913251e-07 0.000375805602717 0.797732656552)
(-4.69693301927e-05 0.00037545632922 0.797731663314)
(-4.3499467196e-05 0.000376119050597 0.797740517919)
(-9.54646694551e-05 0.000375018110016 0.797737420459)
(-8.70691116042e-05 0.000376315076179 0.797757813732)
(-0.000150172504248 0.00037440771109 0.797750901956)
(-0.000133884903043 0.000376036931208 0.797789152507)
(-0.000211908087766 0.000373453583179 0.797775084123)
(-0.000186879809411 0.000374005982757 0.797842428091)
(-0.000274752921146 0.000371886854254 0.797815905103)
(-0.000248494226961 0.000365755575067 0.797928696767)
(-0.000309461158214 0.000369173653657 0.797883966187)
(-0.000312793162474 0.000337981101171 0.798047576358)
(-0.00021604682041 0.000361332310544 0.79789477898)
(-0.000301899769571 0.000301827466578 0.794674418092)
(-5.85390583476e-06 0.000302318146635 0.800223148074)
(-4.09275718496e-05 0.000301760489613 0.800223372913)
(-4.90713263268e-05 0.000302890595296 0.800229578417)
(-8.73853419206e-05 0.000301268631159 0.800230471938)
(-9.40712976089e-05 0.000303472497082 0.800244654225)
(-0.000138864771754 0.000300950514471 0.800246089902)
(-0.000143273320175 0.000303857167357 0.800272387216)
(-0.000197013728758 0.00030106649588 0.800274168038)
(-0.000198705635972 0.000303195984717 0.800320234958)
(-0.000259808999578 0.000301946597719 0.800322208461)
(-0.000259237928507 0.000299019397535 0.800400391135)
(-0.000311194238013 0.000303308573125 0.800400494534)
(-0.000310997820135 0.000284418962828 0.800510345286)
(-0.000289574522437 0.000289183201194 0.800355332265)
(-0.000361433870169 0.0002156838628 0.797894780583)
(-8.76032859693e-06 0.000316727663887 0.800419901344)
(-3.70436455948e-05 0.000316271786103 0.800420761792)
(-5.14700620935e-05 0.000317038709758 0.800425563968)
(-8.18037474513e-05 0.000315742197287 0.800428527915)
(-9.61852899399e-05 0.000317120963373 0.800439500327)
(-0.000130640490718 0.000315121714548 0.800445156588)
(-0.000144840277364 0.000316579254131 0.800465468792)
(-0.000185027013228 0.000314328015131 0.800474967752)
(-0.000198336596163 0.000314340788894 0.800510584194)
(-0.000242978172378 0.000312977564653 0.800525540826)
(-0.000253727879116 0.000308217766968 0.80058545813)
(-0.00029149022833 0.000309689575004 0.800600381187)
(-0.000298224515647 0.000297576204641 0.800669612077)
(-0.000284863195957 0.000310409987558 0.800510336072)
(-0.000338105714726 0.000312241047958 0.798047558276)
(-9.37242423221e-06 0.000305478499383 0.800355711182)
(-3.6387204617e-05 0.000305094922692 0.800356692305)
(-5.2093138671e-05 0.000305666970666 0.800361216423)
(-8.10871639358e-05 0.000304666715964 0.800364574838)
(-9.69469915184e-05 0.000305627187234 0.800374975067)
(-0.000130029703212 0.000304188889991 0.800381432256)
(-0.000145993729768 0.000305021904619 0.800400911276)
(-0.000185107550243 0.000303572892069 0.800411903984)
(-0.000200571363819 0.000303005089579 0.8004467195)
(-0.000245657966265 0.000302299576901 0.800464440932)
(-0.000258843060423 0.000297638597106 0.800524088016)
(-0.000300236051363 0.000299318572147 0.800540942364)
(-0.000310339656966 0.000290573407265 0.800600367039)
(-0.000303743052208 0.00031028792489 0.80040047603)
(-0.000369292409955 0.000308554044285 0.797883943951)
(-9.56485700696e-06 0.000262349647365 0.800341590641)
(-3.62507711271e-05 0.000262048499292 0.800342579234)
(-5.22690875193e-05 0.000262364715122 0.800347039731)
(-8.09463314958e-05 0.000261629331446 0.800350433207)
(-9.70063546446e-05 0.000262062735853 0.800360713973)
(-0.000129833121722 0.000261069250177 0.800367190901)
(-0.000145727093058 0.000261191310279 0.800386529418)
(-0.000184742263362 0.000260351122617 0.800397388298)
(-0.000199631224635 0.000259294887599 0.800432168555)
(-0.000244867767932 0.000259351543663 0.800449225577)
(-0.000256970056853 0.000255852840223 0.800509053836)
(-0.000298555104325 0.000257726709689 0.800524052422)
(-0.000308864755813 0.000252616039835 0.800585406376)
(-0.000299447398317 0.000258146023763 0.800400330112)
(-0.000365877388378 0.000247429500299 0.797928618783)
(-9.71426199483e-06 0.000250705441853 0.800278317451)
(-3.63041204795e-05 0.000250435375631 0.800279319015)
(-5.25879805486e-05 0.000250625867123 0.800283770251)
(-8.12886697382e-05 0.000250035834735 0.800287211745)
(-9.75737938949e-05 0.000250224711442 0.800297516845)
(-0.000130694885014 0.000249457537895 0.800304083297)
(-0.000146718032636 0.00024925879629 0.800323628934)
(-0.000186574604343 0.000248574138258 0.800334652497)
(-0.00020146977705 0.000247251777884 0.800370178904)
(-0.000248307857839 0.000246928976456 0.800387600765)
(-0.000260466914487 0.000243492119377 0.800449190964)
(-0.000303210416494 0.000244283462204 0.800464371261)
(-0.000313612167862 0.000241606400294 0.80052545629)
(-0.000302358898843 0.000258421794899 0.800322125788)
(-0.000372003474059 0.000273360544414 0.79781581995)
(-9.80864802126e-06 0.000202212685333 0.800261777296)
(-3.63375398765e-05 0.000201992279381 0.800262755772)