/*--------------------------------*- C++ -*----------------------------------*\
| =========                 |                                                 |
| \\      /  F ield         | OpenFOAM: The Open Source CFD Toolbox           |
|  \\    /   O peration     | Version:  2406                                  |
|   \\  /    A nd           | Website:  www.openfoam.com                      |
|    \\/     M anipulation  |                                                 |
\*---------------------------------------------------------------------------*/
FoamFile
{
    version     2.0;
    format      ascii;
    arch        "LSB;label=32;scalar=64";
    class       volVectorField;
    location    "0.01";
    object      U_0;
}
// * * * * * * * * * * * * * * * * * * * * * * * * * * * * * * * * * * * * * //

dimensions      [0 1 -1 0 0 0 0];

internalField   nonuniform List<vector> 
29767
(
(9.25793485867e-07 0.000500271490641 0.798945068999)
(-4.92576772011e-05 0.000499807956385 0.798944611649)
(-4.24054583449e-05 0.000500790700221 0.798949441716)
(-0.000102286727814 0.000499347481871 0.798947631395)
(-8.75559439901e-05 0.000501251719231 0.798960035958)
(-0.000170492107417 0.000498775827775 0.798954947562)
(-0.000139796205951 0.000500754508763 0.798982519512)
(-0.000268121880144 0.00049787047655 0.798969226957)
(-0.000208442288717 0.000494314114869 0.799030162871)
(-0.000420753164759 0.000496738053328 0.798997130059)
(-0.000315568981849 0.000454160562971 0.799133395168)
(-0.000659602363894 0.000500092528173 0.799054880138)
(-0.000532144408572 0.000234554399126 0.799356146492)
(-0.000927017385437 0.00055681904438 0.799146057376)
(-0.00117721718645 0.00117713105484 0.796652700974)
(-3.1753134733e-06 0.000907735413209 0.800102066642)
(-3.17521102784e-05 0.000907234762491 0.800102149967)
(-3.5565753974e-05 0.000908491715284 0.800104301019)
(-6.86991267007e-05 0.000907034554179 0.800104512863)
(-7.09268266591e-05 0.000909541823057 0.800109946048)
(-0.000115099487112 0.000907471135616 0.800110045769)
(-0.000114360456342 0.00091078324952 0.800121889037)
(-0.000181677458574 0.000909790370134 0.800121242018)
(-0.000175698543974 0.000911175544405 0.800147243628)
(-0.000295470676054 0.000918632251265 0.800144426709)
(-0.000276702524891 0.000904005777481 0.800205648343)
(-0.000540783036191 0.000954730551868 0.800196211574)
(-0.000462697772313 0.000861029429791 0.800357034488)
(-0.00121465348488 0.00121438433731 0.800185874446)
(-0.000556923327717 0.000926685697421 0.799146080103)
(-5.76616704535e-06 0.000452167743165 0.800299982306)
(-2.90014821452e-05 0.00045178442527 0.800300266342)
(-3.85177198065e-05 0.000452558812544 0.800301937144)
(-6.50368164405e-05 0.000451482027762 0.800302856448)
(-7.46731006087e-05 0.000452797141988 0.800307075407)
(-0.000109255106788 0.00045136032864 0.800308775996)
(-0.000118961173057 0.000452236289008 0.800318000327)
(-0.000170662387426 0.000451822492401 0.800320602006)
(-0.000179150574614 0.000449394720751 0.800340437397)
(-0.00026891158572 0.000454376194041 0.800344547101)
(-0.000267622190975 0.000438223111752 0.800392351826)
(-0.000453222483601 0.000462219280811 0.800398344504)
(-0.000390352290641 0.000389934970519 0.800539493878)
(-0.000861324564781 0.000462313581745 0.800357061181)
(-0.000234672414952 0.000531663484887 0.799356175919)
(-6.31847026421e-06 0.000489648997693 0.800132210885)
(-2.85363027264e-05 0.000489361862915 0.80013254447)
(-3.92315936015e-05 0.000489918658986 0.800134109713)
(-6.47004144167e-05 0.000489171970428 0.800135197702)
(-7.58042664275e-05 0.000490058537162 0.80013920553)
(-0.000109508921483 0.000489194329203 0.800141268876)
(-0.00012127259673 0.000489567801 0.800150259753)
(-0.000173382397794 0.00048961253507 0.800153628286)
(-0.000185217272175 0.000486857212492 0.800174421736)
(-0.000280129623842 0.000490470093203 0.800179310771)
(-0.000286896086603 0.000476919992737 0.800231651449)
(-0.00049060201368 0.00049000626438 0.800240347133)
(-0.000462640844841 0.0004526281678 0.800398359317)
(-0.000955022109533 0.000540197664784 0.800196246549)
(-0.000500207148058 0.000658836434949 0.799054911845)
(-6.43365258251e-06 0.000282002631033 0.800128556593)
(-2.83209955236e-05 0.000281796326256 0.800128891831)
(-3.91757632101e-05 0.000282076972354 0.800130417022)
(-6.435266177e-05 0.000281588236854 0.800131491168)
(-7.53751326697e-05 0.000281914352373 0.800135404116)
(-0.000108911718806 0.000281470358803 0.800137362588)
(-0.000119877822812 0.00028117109798 0.800146184463)
(-0.000172020168348 0.000281693676975 0.800149147508)
(-0.000181228360214 0.000279301385252 0.800169671917)
(-0.000276261612862 0.000282967702242 0.800173245753)
(-0.00027632468396 0.000275598787147 0.800225214383)
(-0.000477516681994 0.000286169689891 0.80023165344)
(-0.000438643285916 0.000266902303148 0.800392367936)
(-0.000904294490764 0.000275998808217 0.800205682683)
(-0.000454273665649 0.000314666120795 0.799133421697)
(-6.57340463036e-06 0.000284444406594 0.800074070196)
(-2.8407902468e-05 0.000284277379712 0.800074410265)
(-3.95079404966e-05 0.000284430559865 0.800075930518)
(-6.47800452219e-05 0.000284066098191 0.800076964017)
(-7.59904626335e-05 0.000284170107248 0.800080807493)
(-0.000110072487198 0.000283832934748 0.800082699124)
(-0.000121136161487 0.000283279721918 0.800091611758)
(-0.000174969585606 0.000283438885886 0.800094602718)
(-0.000184205303654 0.000280881628153 0.800115709786)
(-0.000283191402859 0.000282294204222 0.800119840891)
(-0.000283692278065 0.000275367153348 0.800173244342)
(-0.000491062151737 0.000279236035736 0.800179312217)
(-0.000454787376966 0.00026801921061 0.800344563443)
(-0.000918910755109 0.000294578215894 0.800144461723)
(-0.000496846164411 0.000419589893372 0.798997160652)
(-6.5941167302e-06 0.000183273107064 0.800070997953)
(-2.8322395967e-05 0.000183151054419 0.800071334746)
(-3.93989400631e-05 0.000183203165418 0.800072862978)
(-6.46368079612e-05 0.000182965682259 0.800073933576)
(-7.56693595066e-05 0.000182914671731 0.80007790359)
(-0.000109852875666 0.000182784272955 0.800079811451)
(-0.00012032966647 0.000182305044677 0.800088859674)
(-0.000174445335292 0.000182763832722 0.800091571221)
(-0.000182312110192 0.000181305762841 0.800112828627)
(-0.00028177575981 0.000183195427974 0.800115705928)
(-0.000280022352589 0.00018022151431 0.80016966657)
(-0.000487447728927 0.000184209544775 0.800174418306)
(-0.000449798414289 0.000178151852611 0.800340461728)
(-0.000911454385351 0.00017471206204 0.80014727819)
(-0.000494420734958 0.000207170540006 0.799030185396)
(-6.6566781994e-06 0.00017598259743 0.800049207527)
(-2.84043810609e-05 0.000175872824787 0.800049545006)
(-3.9578836787e-05 0.000175869984776 0.800051077551)
(-6.49305707182e-05 0.000175662089618 0.800052147929)
(-7.60342568745e-05 0.000175517548141 0.800056149815)
(-0.000110572570859 0.000175328675762 0.800058064167)
(-0.000121079717197 0.000174746186207 0.800067238398)
(-0.000175947242933 0.000174779830806 0.80006995844)
(-0.000183772679371 0.000173283508462 0.800091570118)
(-0.000284333993137 0.00017380599186 0.800094598984)
(-0.000282413081752 0.000170863626569 0.800149141278)
(-0.000490199022969 0.000172223453563 0.800153624558)
(-0.000452224622145 0.000169511452727 0.800320613415)
(-0.00091005792993 0.000180528813641 0.800121274607)
(-0.000497970823212 0.000266620397751 0.798969251873)
(-6.68479792166e-06 0.000120391593264 0.800046640289)
(-2.84252865348e-05 0.000120308962972 0.800046978531)
(-3.95940756895e-05 0.000120289552059 0.800048513234)
(-6.4969236812e-05 0.000120160149748 0.800049575352)
(-7.59783908787e-05 0.000120035626545 0.800053581519)
(-0.000110601603263 0.000119975117706 0.800055455419)
(-0.00012085675921 0.000119610144802 0.80006463407)
(-0.000175907432633 0.000119826426943 0.800067234388)
(-0.000183305279889 0.000119082315785 0.800088853906)
(-0.000284168058452 0.000119886979779 0.800091603211)
(-0.000281884563943 0.000118636174772 0.800146172946)
(-0.000490151254421 0.000120029753515 0.800150250104)
(-0.000452640650597 0.000117727525108 0.800318002964)
(-0.000911055153483 0.000113141713474 0.800121916104)
(-0.000500855362422 0.00013822305717 0.798982532321)
(-6.72214261021e-06 0.000110133305652 0.800037362777)
(-2.8503853952e-05 0.000110054199567 0.800037703824)
(-3.97240382731e-05 0.000110012928818 0.800039244962)
(-6.51808467485e-05 0.000109881058012 0.800040311655)
(-7.62155241192e-05 0.000109724118453 0.800044339368)
(-0.000110995834804 0.000109599222027 0.800046218232)
(-0.000121228172035 0.000109215092667 0.800055453076)
(-0.000176495955617 0.00010918531244 0.80005805851)
(-0.000183786780925 0.000108474934558 0.800079804085)
(-0.000284722093219 0.000108696667062 0.800082689263)
(-0.000282180244031 0.000107547361329 0.800137349667)
(-0.000489771513334 0.000108145373111 0.800141258449)
(-0.000451753383251 0.000107899839778 0.800308777305)
(-0.000907729469493 0.000113746773624 0.800110074377)
(-0.000498866957004 0.000168727817502 0.79895496604)
(-6.74661140621e-06 7.50987905835e-05 0.800035500568)
(-2.85446804228e-05 7.50393336117e-05 0.800035842757)
(-3.97658567545e-05 7.50088303666e-05 0.800037383196)
(-6.52567622344e-05 7.4925839438e-05 0.80003844555)
(-7.62590857549e-05 7.48201086369e-05 0.800042474311)
(-0.000111110503876 7.4767279121e-05 0.800044336094)
(-0.000121272509478 7.45396327484e-05 0.800053575117)
(-0.000176669325411 7.45950321721e-05 0.800056139802)
(-0.000183900192631 7.42388409721e-05 0.800077891221)
(-0.000285045308854 7.45614242696e-05 0.80008079065)
(-0.000282612730159 7.39579318662e-05 0.800135385073)
(-0.00049062864685 7.43883677559e-05 0.800139188782)
(-0.000453189019946 7.32673008939e-05 0.800307069309)
(-0.000909803281116 6.95372046269e-05 0.800109968077)
(-0.000501343374977 8.57608514522e-05 0.79896003859)
(-6.76595867892e-06 6.39634333605e-05 0.800031454065)
(-2.85936245596e-05 6.39112283404e-05 0.800031797617)
(-3.98372485786e-05 6.38774048604e-05 0.800033339492)
(-6.53693133257e-05 6.37984646825e-05 0.800034403417)
(-7.63740248163e-05 6.3696923676e-05 0.800038440097)
(-0.000111277254746 6.36215806739e-05 0.800040304124)
(-0.000121403835005 6.34225489714e-05 0.800049565016)
(-0.000176820189659 6.33919312782e-05 0.800052134899)
(-0.000183953612986 6.31102676895e-05 0.800073918686)
(-0.000284942471768 6.32602031672e-05 0.800076943605)
(-0.000282283131599 6.28483290805e-05 0.800131470263)
(-0.000489735456462 6.32006984907e-05 0.800135179525)
(-0.000451861964179 6.3546766199e-05 0.800302849037)
(-0.000907280957375 6.72141872047e-05 0.800104537129)
(-0.000499428066714 0.000100352592517 0.798947641986)
(-6.78579697229e-06 3.83578633741e-05 0.800030390013)
(-2.86307163009e-05 3.83214116341e-05 0.800030735268)
(-3.98786050411e-05 3.8301037026e-05 0.800032276111)
(-6.54372211732e-05 3.8252589103e-05 0.800033339217)
(-7.6436137715e-05 3.81906320518e-05 0.800037376291)
(-0.00011138597547 3.81511090769e-05 0.800039235195)
(-0.000121505441281 3.8032231077e-05 0.800048499747)
(-0.000177000637988 3.80253817457e-05 0.800051060418)
(-0.000184164184465 3.78564323931e-05 0.800072843301)
(-0.000285283452461 3.79713327779e-05 0.800075903624)
(-0.000282753977784 3.76541120291e-05 0.800130390044)
(-0.000490469711684 3.77147223863e-05 0.800134084805)
(-0.000452935099229 3.70118445287e-05 0.800301921857)
(-0.000908739766666 3.4076736745e-05 0.800104317924)
(-0.000500871607099 4.04798038238e-05 0.79894943356)
(-6.79224939374e-06 2.69991047325e-05 0.800028837674)
(-2.86504612359e-05 2.69769351067e-05 0.800029183651)
(-3.99060648114e-05 2.69618539246e-05 0.800030724122)
(-6.54797048898e-05 2.69309016493e-05 0.800031787982)
(-7.64757121005e-05 2.68917105549e-05 0.800035827019)
(-0.000111436819711 2.68648787177e-05 0.800037687144)
(-0.000121532772236 2.679935798e-05 0.800046958894)
(-0.000177010600296 2.67960501854e-05 0.800049523149)
(-0.000184115941242 2.67275777344e-05 0.800071311226)
(-0.000285131846401 2.68251852728e-05 0.800074381132)
(-0.000282470789964 2.67555585449e-05 0.800128862729)
(-0.000489906540978 2.6979037508e-05 0.800132517804)
(-0.000452148590663 2.74549657707e-05 0.800300249726)
(-0.000907466922017 3.02139027367e-05 0.800102169222)
(-0.000499877394912 4.72568026755e-05 0.798944613152)
(-6.80363637798e-06 5.14772583298e-06 0.800028496188)
(-2.86679655692e-05 5.13938927954e-06 0.800028842955)
(-3.99246202852e-05 5.13563398424e-06 0.800030383236)
(-6.55073329876e-05 5.1263320174e-06 0.800031447172)
(-7.65022747243e-05 5.11474910928e-06 0.800035486708)
(-0.000111479099668 5.10602309704e-06 0.800037345917)
(-0.000121576394628 5.07979321061e-06 0.800046619491)
(-0.000177081127913 5.06938267299e-06 0.800049182722)
(-0.000184202232809 5.01862098203e-06 0.800070970605)
(-0.000285266468204 5.00949558801e-06 0.80007403592)
(-0.000282653191974 4.88576546015e-06 0.800128521929)
(-0.000490176136564 4.77841224971e-06 0.800132177686)
(-0.00045252592914 4.23731023017e-06 0.800299957825)
(-0.000907967709873 1.66268024497e-06 0.800102078283)
(-0.000500341264186 -2.88496778279e-06 0.798945049965)
(-4.86479291625e-08 0.000393358964588 0.798766530922)
(-4.59823973864e-05 0.000393013160716 0.798765704455)
(-4.14892249824e-05 0.000393943941707 0.798770844761)
(-9.30464042411e-05 0.000392863885058 0.79876806547)
(-8.34566053569e-05 0.000394813094222 0.79878124438)
(-0.000146417379583 0.000392926407821 0.798774334223)
(-0.000128495710565 0.00039587451263 0.798803887136)
(-0.000207720651413 0.000393207260009 0.79878721283)
(-0.000179842837141 0.00039624061089 0.798853629886)
(-0.000273964773195 0.00039347680366 0.798813877455)
(-0.000241458270217 0.000391736895907 0.798965651596)
(-0.000323849511435 0.000394632380902 0.798877555979)
(-0.000317069750752 0.000352013925955 0.799217977297)
(-0.00025071174763 0.000387450193674 0.79897671141)
(-0.000347577663347 0.000347503474081 0.796367724168)
(-5.23657731622e-06 0.000386662075563 0.800088532236)
(-3.95152526148e-05 0.000386161470259 0.800088508056)
(-4.66479665514e-05 0.000387324134648 0.800091966192)
(-8.42581117469e-05 0.000385867771899 0.800092029814)
(-8.99537512709e-05 0.000388165892562 0.800100780282)
(-0.000134478719349 0.000386000516909 0.800100670943)
(-0.0001380128456 0.000389143309589 0.800120058867)
(-0.000193187009739 0.000387126497006 0.800119051381)
(-0.000194419145582 0.000389888567984 0.800163026607)
(-0.000262653600134 0.000390673055931 0.800159009034)
(-0.000263452477599 0.000388382307284 0.800265785317)
(-0.000341865097666 0.000398608303253 0.800248051532)
(-0.000342486235821 0.000370083449282 0.800513100259)
(-0.000409656488902 0.000409297084986 0.800224087181)
(-0.000387549972506 0.000250373311649 0.798976726491)
(-8.21668372135e-06 0.000368557095527 0.80039386989)
(-3.60073616423e-05 0.00036814281139 0.800394272772)
(-4.96589365625e-05 0.000368886046882 0.80039701146)
(-7.97719262078e-05 0.00036770312861 0.800398509967)
(-9.35655870324e-05 0.00036901364976 0.800405372887)
(-0.000128606488674 0.000367270060526 0.800408421441)
(-0.000142731014506 0.00036850656866 0.80042337249)
(-0.000185621048271 0.000366769599516 0.800428931497)
(-0.000200286137479 0.000365621113007 0.800462798915)
(-0.000253877831262 0.000365922746788 0.800471058233)
(-0.000267935596013 0.000357833308228 0.800549022747)
(-0.00033099076273 0.000362262593195 0.800550043214)
(-0.000333925466444 0.000333334171033 0.800721110536)
(-0.000370488339642 0.000341947120138 0.800513096231)
(-0.000352131124692 0.000316550973542 0.7992179791)
(-8.83214435928e-06 0.000355018129189 0.800233774206)
(-3.53637015082e-05 0.000354694087142 0.800234245798)
(-5.03216828577e-05 0.000355257442402 0.800236861933)
(-7.91243522809e-05 0.000354384514924 0.80023860927)
(-9.44772501811e-05 0.000355325742792 0.800245203847)
(-0.000128270348839 0.000354134465636 0.800248832555)
(-0.000144409948511 0.000354850954277 0.800263392978)
(-0.000186709219388 0.000353895163662 0.80027017586)
(-0.000204228393736 0.000352670166207 0.800303226677)
(-0.000259719781126 0.00035299871566 0.800314714339)
(-0.000278888878996 0.000346079357038 0.800392437296)
(-0.000349245969955 0.000348424019788 0.800396603108)
(-0.000362850353017 0.000330165980703 0.800550034536)
(-0.000399001173846 0.000341050479305 0.800248041799)
(-0.000394742437847 0.000323016013936 0.798877556883)
(-9.02928904462e-06 0.000282306989103 0.800239812625)
(-3.52731756661e-05 0.000282063229108 0.800240272351)
(-5.05585535135e-05 0.000282357258079 0.800242867715)
(-7.91045068276e-05 0.000281739915605 0.800244588981)
(-9.46525727198e-05 0.000282151360927 0.800251147798)
(-0.00012827398945 0.000281372933692 0.800254659289)
(-0.000144256114987 0.000281386061482 0.800269193745)
(-0.000186617946723 0.000280907502839 0.800275432112)
(-0.000203202446158 0.000279374151817 0.80030832806)
(-0.00025897894781 0.000280128621369 0.800317846991)
(-0.000276424232884 0.000275421973022 0.800394940094)
(-0.000346902695882 0.000277891480766 0.800392409394)
(-0.000358418712322 0.000266936676808 0.800548985027)
(-0.000388768978342 0.000262470651763 0.800265740973)
(-0.000391849541376 0.000240473154861 0.798965609034)
(-9.14587277762e-06 0.000265406928804 0.800157618285)
(-3.52457146001e-05 0.000265209946229 0.800158073259)
(-5.0738586523e-05 0.000265378796564 0.800160684781)
(-7.92615907278e-05 0.000264898254293 0.800162459449)
(-9.50259404135e-05 0.000265038962888 0.800169202105)
(-0.000128987470582 0.000264420524786 0.800172829554)
(-0.000145216888663 0.000264095535986 0.800187796279)
(-0.000188617034958 0.000263642353301 0.800194075786)
(-0.000205517002142 0.000261954435288 0.800228137667)
(-0.000263323983043 0.000262098304197 0.800237139118)
(-0.000281127806636 0.000257752515861 0.800317825258)
(-0.000353816082761 0.000258497353153 0.800314664275)
(-0.00036649737918 0.000252653704095 0.80047099732)
(-0.000391045147483 0.000261418988853 0.800158949801)
(-0.000393582371434 0.000272690592501 0.798813828914)
(-9.23652226587e-06 0.000205971519659 0.800150403879)
(-3.53019111721e-05 0.000205821488931 0.800150828953)
(-5.0886813432e-05 0.00020588621836 0.800153443977)
(-7.94098688656e-05 0.000205562365398 0.800155105837)
(-9.51156066059e-05 0.000205551241978 0.800161745564)
(-0.000129149579431 0.000205195898786 0.800165109898)
(-0.000145056214527 0.000204826962852 0.800179962199)
(-0.000188700318471 0.000204734681195 0.800185780329)
(-0.000204957281469 0.00020357345371 0.800219730227)
(-0.000263180910991 0.000204132654102 0.800228089089)
(-0.000280373183256 0.00020182071881 0.800308259742)
(-0.000353489431298 0.000202852865219 0.80030312717)
(-0.000366203953141 0.00019890917552 0.800462676776)
(-0.000390261358158 0.000193045537917 0.800162909591)
(-0.000396351490009 0.000178456779207 0.798853515359)
(-9.32061107808e-06 0.000189927614156 0.800115763753)
(-3.54080032805e-05 0.000189792286171 0.800116185283)
(-5.11238946584e-05 0.000189787625088 0.800118826385)
(-7.97440291468e-05 0.00018950327277 0.800120487473)
(-9.55494559749e-05 0.000189376485907 0.800127189787)
(-0.000129832997569 0.0001890335986 0.800130548173)
(-0.00014577944883 0.000188554880726 0.80014556556)
(-0.000189893191828 0.000188296478364 0.800151392488)
(-0.000206120103448 0.000187110541047 0.800185756297)
(-0.000264868294997 0.000187031031194 0.800194001278)
(-0.000281900302372 0.000185036910789 0.800275337757)
(-0.000354704531747 0.000185138471224 0.800270052917)
(-0.00036733309452 0.000184048389901 0.800428798413)
(-0.000387488987779 0.000191588052601 0.800118918223)
(-0.000393309346116 0.000206077797735 0.798787094453)
(-9.36798527259e-06 0.000145096872546 0.800110328929)
(-3.54526576308e-05 0.000144991980492 0.800110708368)
(-5.11938245664e-05 0.000144964141516 0.800113355391)
(-7.98434649792e-05 0.000144771267638 0.800114946291)
(-9.56139474119e-05 0.000144643671792 0.800121649946)
(-0.000129997490139 0.000144452437244 0.800124885781)
(-0.000145821172118 0.000144105538549 0.800139906738)
(-0.000190145302223 0.00014405765079 0.800145492324)
(-0.000206202522648 0.000143342664686 0.800179868563)
(-0.00026531339962 0.000143507237875 0.800187654673)
(-0.000282371133636 0.000142552300252 0.800269034684)
(-0.000355656805538 0.000142716183869 0.800263207324)
(-0.000369068234376 0.000141039277248 0.800423177433)
(-0.000389509438133 0.000136316184085 0.8001198468)
(-0.000395980847697 0.000126779530012 0.798803673349)
(-9.41845762599e-06 0.000129163050921 0.800095190836)
(-3.55439715704e-05 0.00012906648993 0.800095562896)
(-5.13492409651e-05 0.000129013413674 0.800098223242)
(-8.00690965515e-05 0.000128834397774 0.800099803893)
(-9.58731231633e-05 0.000128670511011 0.800106540988)
(-0.000130373804236 0.000128462863509 0.800109766833)
(-0.000146174535069 0.000128097963757 0.800124867909)
(-0.0001906292333 0.000127934449332 0.800130452294)
(-0.000206571594069 0.000127264426717 0.800164993267)
(-0.000265636673513 0.000127113120528 0.800172662705)
(-0.000282352109522 0.000126407856951 0.80025447349)
(-0.000354931833921 0.000126417649984 0.800248619258)
(-0.00036781980541 0.000126754549149 0.800408200014)
(-0.000386352989108 0.000132600704988 0.800100445034)
(-0.000393024498189 0.00014448946332 0.798774126771)
(-9.45655212773e-06 9.43674952946e-05 0.80009201832)
(-3.56035562292e-05 9.42934829597e-05 0.800092347717)
(-5.14277057613e-05 9.42480680112e-05 0.800095018785)
(-8.01880906784e-05 9.41260696356e-05 0.800096541537)
(-9.59870791325e-05 9.40019769606e-05 0.800103281563)
(-0.00013057021171 9.38794506171e-05 0.800106428503)
(-0.00014634740594 9.36322306292e-05 0.800121526478)
(-0.00019095355686 9.35702611542e-05 0.800126993683)
(-0.000206906089998 9.31504001557e-05 0.800161534617)
(-0.000266236872662 9.30731569383e-05 0.800168949104)
(-0.00028311563217 9.27078236532e-05 0.800250878228)
(-0.000356114110138 9.25468276449e-05 0.800244910812)
(-0.000369561184804 9.16393175984e-05 0.800405071184)
(-0.0003885229825 8.80200746567e-05 0.800100454161)
(-0.000394915802393 8.14978482503e-05 0.798780914202)
(-9.4850386352e-06 7.83798850181e-05 0.800085259562)
(-3.56636061913e-05 7.83174976537e-05 0.800085586457)
(-5.15169917152e-05 7.82705717468e-05 0.800088266806)
(-8.03155068553e-05 7.81655209498e-05 0.800089785349)
(-9.61198317316e-05 7.80498268202e-05 0.800096544658)
(-0.000130742234537 7.79331700187e-05 0.800099685877)
(-0.000146479347709 7.77238396934e-05 0.800114816127)
(-0.000191083453384 7.76365538952e-05 0.800120277779)
(-0.000206916281674 7.73207895855e-05 0.800154879686)
(-0.000266093000174 7.71933118671e-05 0.800162187982)
(-0.000282697181195 7.70469525885e-05 0.80024429769)
(-0.000355163087946 7.70851335844e-05 0.800238292306)
(-0.00036823656973 7.77357822182e-05 0.800398186014)
(-0.000386208591615 8.21970076235e-05 0.800091698989)
(-0.000392957558943 9.09338087975e-05 0.798767757139)
(-9.51365360442e-06 4.94748508618e-05 0.800083640971)
(-3.57128364019e-05 4.94312830301e-05 0.800083931045)
(-5.15796861217e-05 4.93987194927e-05 0.800086622555)
(-8.04088719438e-05 4.93310256432e-05 0.800088098282)
(-9.62192441423e-05 4.92532079774e-05 0.800094862099)
(-0.000130894743112 4.91813221758e-05 0.800097955798)
(-0.000146639907447 4.90419118545e-05 0.800113084217)
(-0.000191335236072 4.89863581479e-05 0.80011848959)
(-0.00020720781307 4.87672287314e-05 0.80015309842)
(-0.000266544750644 4.86411476707e-05 0.800160307063)
(-0.000283291354253 4.84716051138e-05 0.800242475437)
(-0.000356020538702 4.82537002346e-05 0.800236451368)
(-0.000369414025827 4.75965466489e-05 0.800396593918)
(-0.000387668185529 4.4576187394e-05 0.80009151734)
(-0.000394042450648 3.93875512162e-05 0.798770389918)
(-9.52524057635e-06 3.34734831308e-05 0.800080984685)
(-3.57397161666e-05 3.3447013669e-05 0.800081278102)
(-5.16172603239e-05 3.34248412654e-05 0.80008397258)
(-8.04610623024e-05 3.33840812325e-05 0.80008544953)
(-9.62693126221e-05 3.33373697758e-05 0.800092220663)
(-0.000130952015855 3.32965418946e-05 0.800095313079)
(-0.000146670204371 3.32242445319e-05 0.800110451738)
(-0.00019134123614 3.32039224561e-05 0.800115852558)
(-0.000207141750075 3.31189156056e-05 0.80015048384)
(-0.000266372645154 3.30922436713e-05 0.800157687587)
(-0.000282989900318 3.3132699424e-05 0.800239869727)
(-0.000355446779943 3.3246031729e-05 0.800233820815)
(-0.000368655692844 3.38944530573e-05 0.800393842393)
(-0.000386487770673 3.73800107387e-05 0.800088068675)
(-0.000393101881529 4.37977469531e-05 0.798765291253)
(-9.54052907446e-06 7.250524633e-06 0.800080479981)
(-3.57614810637e-05 7.24131706777e-06 0.800080753092)
(-5.16426534466e-05 7.23374551605e-06 0.800083454285)
(-8.04964146596e-05 7.22138506964e-06 0.800084911095)
(-9.63066859521e-05 7.20542714125e-06 0.800091686189)
(-0.000131006896834 7.19062335052e-06 0.800094760097)
(-0.000146729866191 7.15820173763e-06 0.800109900199)
(-0.000191430933117 7.13716133636e-06 0.800115282713)
(-0.00020724902035 7.07318069621e-06 0.800149919594)
(-0.000266531262937 7.01256541123e-06 0.800157112324)
(-0.000283203711332 6.90815198844e-06 0.800239297178)
(-0.000355749506321 6.73386904799e-06 0.800233247071)
(-0.000369061646373 6.12448775374e-06 0.800393337843)
(-0.000386989844301 3.13260243021e-06 0.800087963056)
(-0.000393452767828 -2.08969890345e-06 0.798765954315)
(-6.1034643479e-07 0.000374166069888 0.797742311906)
(-4.67106562479e-05 0.000373818385611 0.797741323856)
(-4.32655699613e-05 0.000374477685016 0.797750134452)
(-9.49526322142e-05 0.0003733820015 0.797747052365)
(-8.65909665985e-05 0.000374672313347 0.797767346138)
(-0.000149378188709 0.000372773766504 0.797760463893)
(-0.00013313383898 0.000374394239896 0.79779853299)
(-0.00021079689645 0.00037182289634 0.797784515403)
(-0.000185810834282 0.000372368671301 0.79785154666)
(-0.000273315639322 0.000370263456744 0.797825108723)
(-0.000247058288108 0.00036414292953 0.797937370774)
(-0.000307804144504 0.00036756360845 0.797892784055)
(-0.000311031794295 0.000336463261256 0.798055623063)
(-0.000214740356428 0.000359766221631 0.797903947148)
(-0.000300418366586 0.000300346491264 0.794699974803)
(-5.80358300687e-06 0.000300537108287 0.800222638465)
(-4.07296545727e-05 0.000299980695574 0.80022285808)
(-4.87922921736e-05 0.000301108357128 0.800229042071)
(-8.69541997353e-05 0.000299489504198 0.800229917837)
(-9.35474821607e-05 0.000301689726365 0.800244051622)
(-0.000138180800222 0.000299170818367 0.800245450364)
(-0.000142475034539 0.000302076667293 0.800271660402)
(-0.000196047755452 0.000299287157975 0.800273370457)
(-0.000197594901195 0.000301428982078 0.800319287347)
(-0.000258536318796 0.000300170345248 0.800321131974)
(-0.000257796119732 0.000297283292416 0.800399065278)
(-0.000309642334832 0.000301549433274 0.800398980047)
(-0.000309327910085 0.000282761993487 0.800508639278)
(-0.000287944509052 0.000287556112981 0.800354592312)
(-0.000359866995779 0.000214380001466 0.797903948754)
(-8.69716908502e-06 0.000314968577727 0.800418261881)
(-3.68657417905e-05 0.000314513652017 0.8004191147)
(-5.1184974499e-05 0.000315279904324 0.800423900663)
(-8.14007857762e-05 0.000313985941886 0.800426839113)
(-9.5663316671e-05 0.000315364400583 0.800437774355)
(-0.000129993972613 0.000313368256846 0.80044337885)
(-0.000144054912602 0.000314828804846 0.800463623008)
(-0.000184107415489 0.000312580826535 0.800473025971)
(-0.000197255284508 0.000312607735232 0.800508523501)
(-0.000241762467901 0.000311248491764 0.800523312615)
(-0.000252337639167 0.000306527195525 0.80058304133)
(-0.000289981215677 0.000308006155937 0.800597780887)
(-0.000296600250785 0.000295957093981 0.800667024251)
(-0.000283202700666 0.000308744556005 0.800508629988)
(-0.000336586788269 0.000310483664575 0.798055604997)
(-9.30699227336e-06 0.000303888505379 0.800353969342)
(-3.62128857931e-05 0.000303505961972 0.800354942572)
(-5.18072349585e-05 0.000304077587143 0.800359451817)
(-8.06892643059e-05 0.000303079594565 0.800362784041)
(-9.64263830514e-05 0.000304040248579 0.800373149542)
(-0.0001293905815 0.000302604811807 0.800379553392)
(-0.000145212082047 0.000303441317414 0.800398966854)
(-0.000184196931509 0.000301995604019 0.800409860413)
(-0.000199493178924 0.000301438655711 0.800444558621)
(-0.000244441951165 0.000300739169826 0.800462105093)
(-0.000257441562477 0.000296105613697 0.80052156914)
(-0.000298701264505 0.000297790812893 0.800538253692)
(-0.000308651061326 0.000289071453652 0.800597766911)
(-0.000301980505916 0.000308742921164 0.800398961633)
(-0.000367681342817 0.000306903973287 0.797892761967)
(-9.49868047136e-06 0.000260892786069 0.800340016142)
(-3.60765397421e-05 0.000260592915401 0.8003409967)
(-5.19822649689e-05 0.00026091035578 0.800345442191)
(-8.05479572368e-05 0.000260178221599 0.800348808984)
(-9.64841993634e-05 0.000260613970601 0.80035905467)
(-0.000129191432145 0.000259623631483 0.800365477899)
(-0.000144942414068 0.000259750202783 0.800384750368)
(-0.000183826720212 0.000258914575859 0.800395509679)
(-0.000198548385341 0.000257869384528 0.800430170002)
(-0.000243644960025 0.000257932535881 0.800447052596)
(-0.000255563670708 0.000254455162462 0.800506695523)
(-0.000297015064939 0.000256333849685 0.800521533646)
(-0.00030716901312 0.000251234425427 0.800582989871)
(-0.000297707960768 0.000256712606255 0.800399004438)
(-0.000364263657392 0.000246001571842 0.797937293153)
(-9.64720573949e-06 0.000249445498039 0.800276943606)
(-3.61281645413e-05 0.000249176489775 0.800277937265)
(-5.22976957813e-05 0.000249367364527 0.800282374231)
(-8.08867131556e-05 0.000248779508737 0.80028578975)
(-9.70484932839e-05 0.000248970009281 0.800296060318)
(-0.00013005093117 0.000248205972492 0.800302572936)
(-0.000145929629658 0.000248011342576 0.800322050928)
(-0.000185653744351 0.000247331303779 0.8003329741)
(-0.000200378774901 0.00024601751949 0.800368376712)
(-0.000247070404849 0.00024570194851 0.800385622109)
(-0.000259039281817 0.0002422798203 0.800447018443)
(-0.000301643090507 0.000243077890803 0.800462035941)
(-0.000311878071266 0.00024040122903 0.800523228795)
(-0.000300579509354 0.000257159751 0.800321049867)
(-0.000370379050169 0.000271934017693 0.79782502419)
(-9.74146959304e-06 0.000201104878788 0.800260583312)
(-3.61620456609e-05 0.000200885060707 0.800261553834)