/*--------------------------------*- C++ -*----------------------------------*\
| =========                 |                                                 |
| \\      /  F ield         | OpenFOAM: The Open Source CFD Toolbox           |
|  \\    /   O peration     | Version:  2406                                  |
|   \\  /    A nd           | Website:  www.openfoam.com                      |
|    \\/     M anipulation  |                                                 |
\*---------------------------------------------------------------------------*/
FoamFile
{
    version     2.0;
    format      ascii;
    arch        "LSB;label=32;scalar=64";
    class       volScalarField;
    location    "0";
    object      k;
}
// * * * * * * * * * * * * * * * * * * * * * * * * * * * * * * * * * * * * * //

dimensions      [0 2 -2 0 0 0 0];

internalField   uniform 1.5;

boundaryField
{
    wall
    {
        type            kqRWallFunction;
        value           uniform 1.5;
    }
    inlet
    {
        type            fixedValue;
        value           nonuniform List<scalar> 0();
    }
    outlet
    {
        type            inletOutlet;
        inletValue      nonuniform List<scalar> 0();
        value           nonuniform List<scalar> 0();
    }
    oversetPatch
    {
        type            overset;
        value           uniform 1.5;
    }
    seed
    {
        type            zeroGradient;
    }
    procBoundary9to0
    {
        type            processor;
        value           uniform 1.5;
    }
    procBoundary9to1
    {
        type            processor;
        value           uniform 1.5;
    }
    procBoundary9to2
    {
        type            processor;
        value           uniform 1.5;
    }
    procBoundary9to3
    {
        type            processor;
        value           uniform 1.5;
    }
    procBoundary9to8
    {
        type            processor;
        value           uniform 1.5;
    }
    procBoundary9to10
    {
        type            processor;
        value           uniform 1.5;
    }
    procBoundary9to11
    {
        type            processor;
        value           uniform 1.5;
    }
    procBoundary9to15
    {
        type            processor;
        value           uniform 1.5;
    }
    procBoundary9to16
    {
        type            processor;
        value           uniform 1.5;
    }
    procBoundary9to17
    {
        type            processor;
        value           uniform 1.5;
    }
    procBoundary9to19
    {
        type            processor;
        value           uniform 1.5;
    }
    procBoundary9to26
    {
        type            processor;
        value           uniform 1.5;
    }
    procBoundary9to27
    {
        type            processor;
        value           uniform 1.5;
    }
    procBoundary9to29
    {
        type            processor;
        value           uniform 1.5;
    }
}


// ************************************************************************* //
