/*--------------------------------*- C++ -*----------------------------------*\
| =========                 |                                                 |
| \\      /  F ield         | OpenFOAM: The Open Source CFD Toolbox           |
|  \\    /   O peration     | Version:  2406                                  |
|   \\  /    A nd           | Website:  www.openfoam.com                      |
|    \\/     M anipulation  |                                                 |
\*---------------------------------------------------------------------------*/
FoamFile
{
    version     2.0;
    format      ascii;
    arch        "LSB;label=32;scalar=64";
    class       pointScalarField;
    location    "0";
    object      motionScale;
}
// * * * * * * * * * * * * * * * * * * * * * * * * * * * * * * * * * * * * * //

dimensions      [0 0 0 0 0 0 0];

internalField   nonuniform List<scalar> 
31991
(
0
0
0
0
0
0
0
0
0
0
0
0
0
0
0
0
0
0
0
0
0
0
0
0
0
0
0
0
0
0
0
0
0
0
0
0
0
0
0
0
0
0
0
0
0
0
0
0
0
0
0
0
0
0
0
0
0
0
0
0
0
0
0
0
0
0
0
0
0
0
0
0
0
0
0
0
0
0
0
0
0
0
0
0
0
0
0
0
0
0
0
0
0
0
0
0
0
0
0
0
0
0
0
0
0
0
0
0
0
0
0
0
0
0
0
0
0
0
0
0
0
0
0
0
0
0
0
0
0
0
0
0
0
0
0
0
0
0
0
0
0
0
0
0
0
0
0
0
0
0
0
0
0
0
0
0
0
0
0
0
0
0
0
0
0
0
0
0
0
0
0
0
0
0
0
0
0
0
0
0
0
0
0
0
0
0
0
0
0
0
0
0
0
0
0
0
0
0
0
0
0
0
0
0
0
0
0
0
0
0
0
0
0
0
0
0
0
0
0
0
0
0
0
0
0
0
0
0
0
0
0
0
0
0
0
0
0
0
0
0
0
0
0
0
0
0
0
0
0
0
0
0
0
0
0
0
0
0
0
0
0
0
0
0
0
0
0
0
0
0
0
0
0
0
0
0
0
0
0
0
0
0
0
0
0
0
0
0
0
0
0
0
0
0
0
0
0
0
0
0
0
0
0
0
0
0
0
0
0
0
0
0
0
0
0
0
0
0
0
0
0
0
0
0
0
0
0
0
0
0
0
0
0
0
0
0
0
0
0
0
0
0
0
0
0
0
0
0
0
0
0
0
0
0
0
0
0
0
0
0
0
0
0
0
0
0
0
0
0
0
0
0
0
0
0
0
0
0
0
0
0
0
0
0
0
0
0
0
0
0
0
0
0
0
0
0
0
0
0
0
0
0
0
0
0
0
0
0
0
0
0
0
0
0
0
0
0
0
0
0
0
0
0
0
0
0
0
0
0
0
0
0
0
0
0
0
0
0
0
0
0
0
0
0
0
0
0
0
0
0
0
0
0
0
0
0
0
0
0
0
0
0
0
0
0
0
0
0
0
0
0
0
0
0
0
0
0
0
0
0
0
0
0
0
0
0
0
0
0
0
0
0
0
0
0
0
0
0
0
0
0
0
0
0
0
0
0
0
0
0
0
0
0
0
0
0
0
0
0
0
0
0
0
0
0
0
0
0
0
0
0
0
0
0
0
0
0
0
0
0
0
0
0
0
0
0
0
0
0
0
0
0
0
0
0
0
0
0
0
0
0
0
0
0
0
0
0
0
0
0
0
0
0
0
0
0
0
0
0
0
0
0
0
0
0
0
0
0
0
0
0
0
0
0
0
0
0
0
0
0
0
0
0
0
0
0
0
0
0
0
0
0
0
0
0
0
0
0
0
0
0
0
0
0
0
0
0
0
0
0
0
0
0
0
0
0
0
0
0
0
0
0
0
0
0
0
0
0
0
0
0
0
0
0
0
0
0
0
0
0
0
0
0
0
0
0
0
0
0
0
0
0
0
0
0
0
0
0
0
0
0
0
0
0
0
0
0
0
0
0
0
0
0
0
0
0
0
0
0
0
0
0
0
0
0
0
0
0
0
0
0
0
0
0
0
0
0
0
0
0
0
0
0
0
0
0
0
0
0
0
0
0
0
0
0
0
0
0
0
0
0
0
0
0
0
0
0
0
0
0
0
0
0
0
0
0
0
0
0
0
0
0
0
0
0
0
0
0
0
0
0
0
0
0
0
0
0
0
0
0
0
0
0
0
0
0
0
0
0
0
0
0
0
0
0
0
0
0
0
0
0
0
0
0
0
0
0
0
0
0
0
0
0
0
0
0
0
0
0
0
0
0
0
0
0
0
0
0
0
0
0
0
0
0
0
0
0
0
0
0
0
0
0
0
0
0
0
0
0
0
0
0
0
0
0
0
0
0
0
0
0
0
0
0
0
0
0
0
0
0
0
0
0
0
0
0
0
0
0
0
0
0
0
0
0
0
0
0
0
0
0
0
0
0
0
0
0
0
0
0
0
0
0
0
0
0
0
0
0
0
0
0
0
0
0
0
0
0
0
0
0
0
0
0
0
0
0
0
0
0
0
0
0
0
0
0
0
0
0
0
0
0
0
0
0
0
0
0
0
0
0
0
0
0
0
0
0
0
0
0
0
0
0
0
0
0
0
0
0
0
0
0
0
0
0
0
0
0
0
0
0
0
0
0
0
0
0
0
0
0
0
0
0
0
0
0
0
0
0
0
0
0
0
0
0
0
0
0
0
0
0
0
0
0
0
0
0
0
0
0
0
0
0
0
0
0
0
0
0
0
0
0
0
0
0
0
0
0
0
0
0
0
0
0
0
0
0
0
0
0
0
0
0
0
0
0
0
0
0
0
0
0
0
0
0
0
0
0
0
0
0
0
0
0
0
0
0
0
0
0
0
0
0
0
0
0
0
0
0
0
0
0
0
0
0
0
0
0
0
0
0
0
0
0
0
0
0
0
0
0
0
0
0
0
0
0
0
0
0
0
0
0
0
0
0
0
0
0
0
0
0
0
0
0
0
0
0
0
0
0
0
0
0
0
0
0
0
0
0
0
0
0
0
0
0
0
0
0
0
0
0
0
0
0
0
0
0
0
0
0
0
0
0
0
0
0
0
0
0
0
0
0
0
0
0
0
0
0
0
0
0
0
0
0
0
0
0
0
0
0
0
0
0
0
0
0
0
0
0
0
0
0
0
0
0
0
0
0
0
0
0
0
0
0
0
0
0
0
0
0
0
0
0
0
0
0
0
0
0
0
0
0
0
0
0
0
0
0
0
0
0
0
0
0
0
0
0
0
0
0
0
0
0
0
0
0
0
0
0
0
0
0
0
0
0
0
0
0
0
0
0
0
0
0
0
0
0
0
0
0
0
0
0
0
0
0
0
0
0
0
0
0
0
0
0
0
0
0
0
0
0
0
0
0
0
0
0
0
0
0
0
0
0
0
0
0
0
0
0
0
0
0
0
0
0
0
0
0
0
0
0
0
0
0
0
0
0
0
0
0
0
0
0
0
0
0
0
0
0
0
0
0
0
0
0
0
0
0
0
0
0
0
0
0
0
0
0
0
0
0
0
0
0
0
0
0
0
0
0
0
0
0
0
0
0
0
0
0
0
0
0
0
0
0
0
0
0
0
0
0
0
0
0
0
0
0
0
0
0
0
0
0
0
0
0
0
0
0
0
0
0
0
0
0
0
0
0
0
0
0
0
0
0
0
0
0
0
0
0
0
0
0
0
0
0
0
0
0
0
0
0
0
0
0
0
0
0
0
0
0
0
0
0
0
0
0
0
0
0
0
0
0
0
0
0
0
0
0
0
0
0
0
0
0
0
0
0
0
0
0
0
0
0
0
0
0
0
0
0
0
0
0
0
0
0
0
0
0
0
0
0
0
0
0
0
0
0
0
0
0
0
0
0
0
0
0
0
0
0
0
0
0
0
0
0
0
0
0
0
0
0
0
0
0
0
0
0
0
0
0
0
0
0
0
0
0
0
0
0
0
0
0
0
0
0
0
0
0
0
0
0
0
0
0
0
0
0
0
0
0
0
0
0
0
0
0
0
0
0
0
0
0
0
0
0
0
0
0
0
0
0
0
0
0
0
0
0
0
0
0
0
0
0
0
0
0
0
0
0
0
0
0
0
0
0
0
0
0
0
0
0
0
0
0
0
0
0
0
0
0
0
0
0
0
0
0
0
0
0
0
0
0
0
0
0
0
0
0
0
0
0
0
0
0
0
0
0
0
0
0
0
0
0
0
0
0
0
0
0
0
0
0
0
0
0
0
0
0
0
0
0
0
0
0
0
0
0
0
0
0
0
0
0
0
0
0
0
0
0
0
0
0
0
0
0
0
0
0
0
0
0
0
0
0
0
0
0
0
0
0
0
0
0
0
0
0
0
0
0
0
0
0
0
0
0
0
0
0
0
0
0
0
0
0
0
0
0
0
0
0
0
0
0
0
0
0
0
0
0
0
0
0
0
0
0
0
0
0
0
0
0
0
0
0
0
0
0
0
0
0
0
0
0
0
0
0
0
0
0
0
0
0
0
0
0
0
0
0
0
0
0
0
0
0
0
0
0
0
0
0
0
0
0
0
0
0
0
0
0
0
0
0
0
0
0
0
0
0
0
0
0
0
0
0
0
0
0
0
0
0
0
0
0
0
0
0
0
0
0
0
0
0
0
0
0
0
0
0
0
0
0
0
0
0
0
0
0
0
0
0
0
0
0
0
0
0
0
0
0
0
0
0
0
0
0
0
0
0
0
0
0
0
0
0
0
0
0
0
0
0
0
0
0
0
0
0
0
0
0
0
0
0
0
0
0
0
0
0
0
0
0
0
0
0
0
0
0
0
0
0
0
0
0
0
0
0
0
0
0
0
0
0
0
0
0
0
0
0
0
0
0
0
0
0
0
0
0
0
0
0
0
0
0
0
0
0
0
0
0
0
0
0
0
0
0
0
0
0
0
0
0
0
0
0
0
0
0
0
0
0
0
0
0
0
0
0
0
0
0
0
0
0
0
0
0
0
0
0
0
0
0
0
0
0
0
0
0
0
0
0
0
0
0
0
0
0
0
0
0
0
0
0
0
0
0
0
0
0
0
0
0
0
0
0
0
0
0
0
0
0
0
0
0
0
0
0
0
0
0
0
0
0
0
0
0
0
0
0
0
0
0
0
0
0
0
0
0
0
0
0
0
0
0
0
0
0
0
0
0
0
0
0
0
0
0
0
0
0
0
0
0
0
0
0
0
0
0
0
0
0
0
0
0
0
0
0
0
0
0
0
0
0
0
0
0
0
0
0
0
0
0
0
0
0
0
0
0
0
0
0
0
0
0
0
0
0
0
0
0
0
0
0
0
0
0
0
0
0
0
0
0
0
0
0
0
0
0
0
0
0
0
0
0
0
0
0
0
0
0
0
0
0
0
0
0
0
0
0
0
0
0
0
0
0
0
0
0
0
0
0
0
0
0
0
0
0
0
0
0
0
0
0
0
0
0
0
0
0
0
0
0
0
0
0
0
0
0
0
0
0
0
0
0
0
0
0
0
0
0
0
0
0
0
0
0
0
0
0
0
0
0
0
0
0
0
0
0
0
0
0
0
0
0
0
0
0
0
0
0
0
0
0
0
0
0
0
0
0
0
0
0
0
0
0
0
0
0
0
0
0
0
0
0
0
0
0
0
0
0
0
0
0
0
0
0
0
0
0
0
0
0
0
0
0
0
0
0
0
0
0
0
0
0
0
0
0
0
0
0
0
0
0
0
0
0
0
0
0
0
0
0
0
0
0
0
0
0
0
0
0
0
0
0
0
0
0
0
0
0
0
0
0
0
0
0
0
0
0
0
0
0
0
0
0
0
0
0
0
0
0
0
0
0
0
0
0
0
0
0
0
0
0
0
0
0
0
0
0
0
0
0
0
0
0
0
0
0
0
0
0
0
0
0
0
0
0
0
0
0
0
0
0
0
0
0
0
0
0
0
0
0
0
0
0
0
0
0
0
0
0
0
0
0
0
0
0
0
0
0
0
0
0
0
0
0
0
0
0
0
0
0
0
0
0
0
0
0
0
0
0
0
0
0
0
0
0
0
0
0
0
0
0
0
0
0
0
0
0
0
0
0
0
0
0
0
0
0
0
0
0
0
0
0
0
0
0
0
0
0
0
0
0
0
0
0
0
0
0
0
0
0
0
0
0
0
0
0
0
0
0
0
0
0
0
0
0
0
0
0
0
0
0
0
0
0
0
0
0
0
0
0
0
0
0
0
0
0
0
0
0
0
0
0
0
0
0
0
0
0
0
0
0
0
0
0
0
0
0
0
0
0
0
0
0
0
0
0
0
0
0
0
0
0
0
0
0
0
0
0
0
0
0
0
0
0
0
0
0
0
0
0
0
0
0
0
0
0
0
0
0
0
0
0
0
0
0
0
0
0
0
0
0
0
0
0
0
0
0
0
0
0
0
0
0
0
0
0
0
0
0
0
0
0
0
0
0
0
0
0
0
0
0
0
0
0
0
0
0
0
0
0
0
0
0
0
0
0
0
0
0
0
0
0
0
0
0
0
0
0
0
0
0
0
0
0
0
0
0
0
0
0
0
0
0
0
0
0
0
0
0
0
0
0
0
0
0
0
0
0
0
0
0
0
0
0
0
0
0
0
0
0
0
0
0
0
0
0
0
0
0
0
0
0
0
0
0
0
0
0
0
0
0
0
0
0
0
0
0
0
0
0
0
0
0
0
0
0
0
0
0
0
0
0
0
0
0
0
0
0
0
0
0
0
0
0
0
0
0
0
0
0
0
0
0
0
0
0
0
0
0
0
0
0
0
0
0
0
0
0
0
0
0
0
0
0
0
0
0
0
0
0
0
0
0
0
0
0
0
0
0
0
0
0
0
0
0
0
0
0
0
0
0
0
0
0
0
0
0
0
0
0
0
0
0
0
0
0
0
0
0
0
0
0
0
0
0
0
0
0
0
0
0
0
0
0
0
0
0
0
0
0
0
0
0
0
0
0
0
0
0
0
0
0
0
0
0
0
0
0
0
0
0
0
0
0
0
0
0
0
0
0
0
0
0
0
0
0
0
0
0
0
0
0
0
0
0
0
0
0
0
0
0
0
0
0
0
0
0
0
0
0
0
0
0
0
0
0
0
0
0
0
0
0
0
0
0
0
0
0
0
0
0
0
0
0
0
0
0
0
0
0
0
0
0
0
0
0
0
0
0
0
0
0
0
0
0
0
0
0
0
0
0
0
0
0
0
0
0
0
0
0
0
0
0
0
0
0
0
0
0
0
0
0
0
0
0
0
0
0
0
0
0
0
0
0
0
0
0
0
0
0
0
0
0
0
0
0
0
0
0
0
0
0
0
0
0
0
0
0
0
0
0
0
0
0
0
0
0
0
0
0
0
0
0
0
0
0
0
0
0
0
0
0
0
0
0
0
0
0
0
0
0
0
0
0
0
0
0
0
0
0
0
0
0
0
0
0
0
0
0
0
0
0
0
0
0
0
0
0
0
0
0
0
0
0
0
0
0
0
0
0
0
0
0
0
0
0
0
0
0
0
0
0
0
0
0
0
0
0
0
0
0
0
0
0
0
0
0
0
0
0
0
0
0
0
0
0
0
0
0
0
0
0
0
0
0
0
0
0
0
0
0
0
0
0
0
0
0
0
0
0
0
0
0
0
0
0
0
0
0
0
0
0
0
0
0
0
0
0
0
0
0
0
0
0
0
0
0
0
0
0
0
0
0
0
0
0
0
0
0
0
0
0
0
0
0
0
0
0
0
0
0
0
0
0
0
0
0
0
0
0
0
0
0
0
0
0
0
0
0
0
0
0
0
0
0
0
0
0
0
0
0
0
0
0
0
0
0
0
0
0
0
0
0
0
0
0
0
0
0
0
0
0
0
0
0
0
0
0
0
0
0
0
0
0
0
0
0
0
0
0
0
0
0
0
0
0
0
0
0
0
0
0
0
0
0
0
0
0
0
0
0
0
0
0
0
0
0
0
0
0
0
0
0
0
0
0
0
0
0
0
0
0
0
0
0
0
0
0
0
0
0
0
0
0
0
0
0
0
0
0
0
0
0
0
0
0
0
0
0
0
0
0
0
0
0
0
0
0
0
0
0
0
0
0
0
0
0
0
0
0
0
0
0
0
0
0
0
0
0
0
0
0
0
0
0
0
0
0
0
0
0
0
0
0
0
0
0
0
0
0
0
0
0
0
0
0
0
0
0
0
0
0
0
0
0
0
0
0
0
0
0
0
0
0
0
0
0
0
0
0
0
0
0
0
0
0
0
0
0
0
0
0
0
0
0
0
0
0
0
0
0
0
0
0
0
0
0
0
0
0
0
0
0
0
0
0
0
0
0
0
0
0
0
0
0
0
0
0
0
0
0
0
0
0
0
0
0
0
0
0
0
0
0
0
0
0
0
0
0
0
0
0
0
0
0
0
0
0
0
1
1
1
1
1
1
1
1
1
1
1
1
1
1
1
0.996408342098
0.99676417687
0.997100339968
0.997416865239
0.997744706356
0.998022976243
0.998276166538
0.998514802899
0.998734077425
0.998934118363
0.996485953953
0.996840933319
0.997176165508
0.997491675011
0.997787494359
0.998092053704
0.998345531677
0.998582688876
0.998800321866
0.998998517313
0.999177408312
0.999337156787
0.999477981399
0.999600157439
0.996549484324
0.996903745434
0.997238192632
0.997552843467
0.997847720436
0.998122854391
0.998401843876
0.998637742624
0.998853958881
0.999050569479
0.999227670416
0.99938538944
0.999523885965
0.999643394121
0.996599012978
0.996952698757
0.997286519111
0.997600482849
0.997894604254
0.998168903795
0.9984234163
0.998680160075
0.998895238047
0.999090563913
0.999266208248
0.999422252167
0.999558825383
0.999676091475
0.996634598421
0.99698786479
0.997321226229
0.997634686194
0.997928252385
0.998201937525
0.998455767099
0.998710113423
0.99892435946
0.999118746702
0.999293309385
0.999448116805
0.999583248619
0.999698822909
0.996656287034
0.997009294791
0.997342372937
0.997655521558
0.997948744281
0.998222055404
0.99847545456
0.998727728906
0.99894147407
0.999135292054
0.999309202372
0.999463255539
0.999597506486
0.999712042582
0.996664106725
0.997017020678
0.997349996044
0.997663031715
0.997956129536
0.998229302343
0.998482547244
0.998715888357
0.998946674153
0.999140316851
0.999314030184
0.999467849918
0.99960182752
0.999716039733
0.999709786085
0.99979681709
0.999744216668
0.999832044764
0.99977428468
0.999857805764
0.999795009915
0.999872050752
0.999806982916
0.999882510133
0.999810590643
0.999885641955
0.999866416691
0.999919465711
0.999897396847
0.999945424907
0.999919422174
0.99996289755
0.999933757957
0.99997359056
0.99994147243
0.999979034344
0.99994326159
0.99998025794
0.999957201907
0.999983260026
0.99999620407
0.999999999243
1
1
0.99997725329
0.99999529372
1
1
0.999989130065
0.999999681471
1
1
0.999995167713
1
1
1
0.999997616503
1
1
1
0.999998083766
1
1
1
1
1
1
1
1
1
1
1
1
1
1
1
1
1
1
1
1
1
1
1
1
1
1
1
1
1
1
1
1
1
1
1
1
1
1
1
1
1
1
1
1
1
1
1
1
1
1
1
1
1
1
1
1
1
1
1
1
1
1
1
1
0.99659028377
0.996224303301
0.999999974969
0.999999987648
0.999999708809
0.999997934887
0.999992002468
0.999979710672
0.999957651138
0.999923298994
0.999874698838
1
1
1
1
0.999998712163
0.999991222374
0.999973849998
0.999943768496
0.999898930622
0.999837897656
0.999759585673
1
1
1
1
1
0.999996538822
0.999983828865
0.999958190463
0.999917638718
0.999857910999
0.999784090173
0.999692392429
0.999582299077
0.999810401959
0.999729349986
0.999630770286
0.999514099157
0.999380653856
0.999229471525
0.999059416575
0.998870281795
0.998661890485
0.998434126071
0.99818688455
0.997920085638
0.997633660054
0.99732757379
0.997001780961
0.996656256138
0.996290976605
0.999665749945
0.999553805275
0.999423330018
0.99927400377
0.999105587509
0.998917905915
0.998710811812
0.998484210942
0.998238013617
0.997972159341
0.997686590429
0.997381283775
0.997056202779
0.996711329877
0.996346649075
0.999453425133
0.99930549046
0.99913830382
0.998951699276
0.998745570676
0.998519821109
0.998274392065
0.998009229907
0.997724287141
0.997419549115
0.997094986366
0.996750587413
0.996386341212
1
1
1
1
0.999998941711
0.999991781751
0.999974723806
0.999944924049
0.999900330409
0.999839505784
0.999757638862
0.99966364005
0.999551560919
0.999420964842
0.999271527459
0.999103022027
0.998915253182
0.998708091961
1
1
1
1
1
0.999998613339
0.999987556368
0.999962965559
0.999922788128
0.999864813067
0.99979184364
0.999700871848
0.999591396606
0.999463056784
0.999315591443
0.999148806674
0.998962559252
0.99875674786
0.998531278519
0.998286102698
1
1
1
1
1
1
0.999994523495
0.999975170648
0.999939835048
0.99988556728
0.999815406977
0.999726799342
0.999619331016
0.999492707205
0.999346724712
0.999181231462
0.998996117688
0.998791305217
0.998566724205
0.998322341963
0.998058118882
0.997774023614
0.998481418518
0.998235163294
0.997969255505
0.997683638127
0.997378286246
0.997053166601
0.996708256932
0.996356103941
0.99802116702
0.997736428866
0.997431876436
0.997115542582
0.996771880119
0.996408360032
0.997474331538
0.997151003427
0.996813201025
0.996450840016
1
1
1
1
1
1
0.999997483894
0.999984887552
0.999958986518
0.9999162153
0.999860054924
0.999786791805
0.9996956722
0.999579241435
0.999450189028
0.999302106188
0.99913478046
0.998948058203
0.998741825534
0.998515982122
0.998270470444
0.998005232692
0.99772022166
0.997415421678
0.997090804041
0.99676174269
0.996398108943
1
1
1
1
1
1
0.999994739554
0.999975494194
0.999937398804
0.999884964023
0.999814716457
0.999726037162
0.999618505401
0.999491833485
0.999345802664
0.999180270737
0.998995122281
0.998790280305
0.99856567339
0.998321267066
0.998057022432
0.99777291507
0.997479753406
0.997156502493
0.996813353053
0.996450302699
1
1
1
1
1
1
0.999998960569
0.999985253311
0.99995334263
0.99990468205
0.999837518843
0.999751393292
0.999646001119
0.999521139647
0.999376667491
0.999212475762
0.999028504827
0.998824689038
0.998600994739
0.998357401444
0.998093885075
0.997817483147
0.997514662042
0.997191905961
0.99685668201
0.99649482092
1
1
1
1
1
1
1
0.999999390596
0.999990086028
0.999967779187
0.999928873957
0.999874975603
0.999803623836
0.999714121739
0.999605995619
0.999478901668
0.999332598286
0.999154905297
0.998968868142
0.99876324184
0.998537938272
0.998292909762
0.998028106529
0.997743495324
0.997456454474
0.997132878062
0.99678943161
0.996426109379
1
1
1
1
1
1
0.999997962755
0.99998221892
0.999950564503
0.999901420691
0.999833988143
0.999747756878
0.999642381724
0.999509988597
0.999364914534
0.999200206615
0.999015778696
0.998811565416
0.99858751974
0.99834361365
0.998079817263
0.99780961334
0.997506666659
0.997183796512
0.996840994019
0.996478261041
1
1
1
1
1
1
0.999999978209
0.99999078706
0.999963973614
0.999918639331
0.999851189599
0.999766750551
0.99966275686
0.999539070703
0.999395594682
0.999232267137
0.999049038725
0.998845877082
0.9986227661
0.998379680018
0.998126326984
0.997843925014
0.997541530433
0.997219160993
0.996876814384
0.996524830629
1
1
1
1
1
1
1
0.999999952117
0.999992756889
0.99997231801
0.999934962069
0.999882269792
0.99981192221
0.99972326745
0.999615855195
0.999489374966
0.999343605073
0.999178378514
1
1
1
1
1
1
0.999999176072
0.999985797626
0.999955922799
0.999908197502
0.999841912058
0.999756619653
0.999652029371
0.999527941774
0.99938421826
0.999208752521
0.999024639337
0.998820702491
1
1
1
1
1
1
1
0.999993454603
0.999968736354
0.999925007487
0.999861894189
0.999779173508
0.999676703307
0.999546736906
0.999403700404
0.999240749818
0.999057847946
0.998854971896
0.998643623039
0.998401479437
1
1
1
1
1
1
1
1
1
1
1
1
1
1
1
1
1
1
1
1
0.99899357397
0.998772436104
0.99854736759
0.998302549187
0.998037934675
0.997773483215
0.997469966446
0.99714657843
0.99680330383
0.996440138949
0.998596907094
0.998353212744
0.998105659384
0.997822881044
0.997520146636
0.997197469061
0.996854842026
0.996492269355
0.998139328837
0.997857166339
0.997554987705
0.997232813873
0.996890645252
0.99654090655
1
1
1
1
1
1
1
1
1
1
1
1
1
1
1
0.996352690968
0.996330115039
0.99625440336
0.996162546284
0.996088038981
0.995977714137
0.995903285349
0.995812597381
0.995705553836
0.99558204663
0.995441958161
0.995285163498
0.995111532509
0.994920931884
0.994713226981
0.994488283484
0.994245968842
0.993986153493
0.993708711868
0.993413523195
0.993100472114
0.992777094744
0.992430171896
0.991972251052
0.991588731152
0.991186884613
0.996709123611
0.996687508392
0.996612585298
0.996521655963
0.996413738258
0.996356061956
0.996282350469
0.996192514712
0.996086444589
0.995964019295
0.99582510792
0.995669572007
0.995497268015
0.99530804962
0.995101769788
0.994878282606
0.994637444837
0.994379117212
0.994103165471
0.993809461153
0.993497882187
0.99317773662
0.992830109599
0.99247066595
0.992092973293
0.99169694296
0.997045936053
0.997025285138
0.996951216499
0.996861290541
0.996771758417
0.996714706981
0.99664177649
0.996552859954
0.996447839568
0.996326577991
0.996188929162
0.996034739358
0.995863850042
0.995676100482
0.995471330073
0.995249380338
0.995010096606
0.994753329351
0.994478935247
0.994186777933
0.993876728548
0.993557449332
0.993217635064
0.992859638367
0.992483360172
0.992088708985
0.997401063732
0.997343485411
0.99728808936
0.997209920392
0.997110047907
0.997053676042
0.996981591176
0.996893674218
0.996789787746
0.996669777623
0.996533484376
0.996380735097
0.996211354476
0.996025165846
0.995821993766
0.995601666205
0.995364016311
0.995108883793
0.994836115951
0.994545568388
0.994245211478
0.993925027388
0.9935867375
0.993230230956
0.992855405431
0.992462166914
0.997698916158
0.997642159853
0.997589693168
0.997512581793
0.99742863263
0.997373001743
0.997301836931
0.997215002614
0.997112343055
0.996993686665
0.996858848402
0.996707641624
0.996539870351
0.996355340319
0.996153859926
0.99593524258
0.995699308545
0.995445886321
0.995174813619
0.994885937972
0.994592810813
0.99427423376
0.993937514751
0.993582539145
0.993209201724
0.992817406345
0.99797723088
0.997921373909
0.997871841111
0.997767154731
0.997727546716
0.997672726005
0.997602564697
0.997516907769
0.997415578062
0.997298381526
0.997165112409
0.997015558136
0.996849501775
0.996666733536
0.996467042369
0.996250226139
0.996016091593
0.995764455686
0.995495146449
0.995220961541
0.994922097757
0.994605178035
0.994270073629
0.993916666544
0.993544849128
0.993154523584
0.998236072661
0.998181202298
0.998134607373
0.998045784386
0.998006836146
0.997952903887
0.997883838113
0.99779946441
0.997699578631
0.997583960641
0.99745237872
0.997304595313
0.997140372076
0.996959472201
0.996761671485
0.996546749434
0.996314498763
0.996064724703
0.995797245687
0.99553030879
0.995233195316
0.99491798001
0.994584530207
0.994232725114
0.993862455218
0.993473621646
0.998475532126
0.998421747028
0.998378093127
0.998304774332
0.998266553714
0.99821359878
0.998145738098
0.998062766087
0.997964448931
0.997850539781
0.997720775295
0.997574889693
0.997412618707
0.997233704272
0.997037896226
0.996824962573
0.996594679771
0.996346841356
0.996098856373
0.995821550441
0.995526238212
0.995212770039
0.994881010014
0.994530835242
0.994162135044
0.993774810136
0.998695715741
0.998659659323
0.998602422183
0.998544195808
0.998506774872
0.998454898568
0.998388359138
0.998306921572
0.998210317008
0.998098257706
0.997970451568
0.997826599205
0.997666407694
0.997489593888
0.997295888155
0.997085034986
0.996856802131
0.996610969848
0.996370238342
0.996094838505
0.995801373289
0.995489689258
0.99515964811
0.994811125692
0.994444010973
0.99405820503
0.998896764659
0.998863564432
0.998807733135
0.998764114373
0.998727594223
0.998676910718
0.998611831888
0.998532077732
0.998437332237
0.998327282465
0.998201586383
0.998059908885
0.997901929234
0.997727335618
0.997535836104
0.99732715909
0.997101052488
0.996879267414
0.996623783593
0.996350339034
0.996058759778
0.995748889646
0.995420588984
0.995073733379
0.994708212387
0.994323928306
0.999048493521
0.998986543946
0.998964637988
0.998929116502
0.998879760459
0.998816294571
0.998738391149
0.998645691245
0.998537812569
0.998414385696
0.998275037
0.998119403269
0.997947149753
0.99775795992
0.99755154441
0.997327639701
0.997113091469
0.996859680754
0.996588232416
0.996298569329
0.995990533866
0.995663986253
0.995318802966
0.994954875192
0.9945721074
0.999145899048
0.999111494966
0.999063620609
0.999001943059
0.998926075008
0.998835600377
0.998730089028
0.998609107099
0.998472236309
0.998319089229
0.998149287259
0.997962505043
0.997758430512
0.997562801206
0.997329431729
0.997078135185
0.996808713367
0.99652098576
0.996214794826
0.99589000209
0.9955464862
0.995184141118
0.994802874487
0.999228701904
0.99916900925
0.999095386381
0.999007344932
0.998904389407
0.998786028812
0.998651795645
0.998501266707
0.998334038886
0.998149751192
0.997972971207
0.997759642579
0.997528519618
0.99727937074
0.997011990528
0.996726204424
0.996421854895
0.996098806349
0.995756940991
0.995362390281
0.994985880891
0.99924664241
0.999161256269
0.999061059426
0.998945502298
0.998814065632
0.998666274584
0.998501712911
0.998343704703
0.998150404547
0.997939459764
0.997681812322
0.997434070142
0.997167992338
0.996883407132
0.99658016078
0.996258122079
0.99591717796
0.995557231224
0.995178198568
0.996430426447
0.996406130068
0.996330577266
0.996238905615
0.996162781697
0.99604480297
0.995970495017
0.995879950333
0.995773070599
0.995649745648
0.995509855685
0.995353273547
0.995179866882
0.994989500213
0.994782036829
0.994557340468
0.994315276778
0.994055714551
0.99377852674
0.993483591256
0.993170791582
0.992840017214
0.992499301528
0.992042043792
0.99165875067
0.991257125892
0.996786020413
0.996762708815
0.996687965736
0.996597248094
0.996480051387
0.996422484483
0.996348911447
0.996259237227
0.996153351374
0.996031130587
0.995892441357
0.995737142596
0.995565088172
0.995376129256
0.995170116448
0.994946901631
0.994706339551
0.994448289125
0.994172614473
0.993879185718
0.993567879564
0.993246331855
0.992898612471
0.992539416476
0.992161966184
0.991766172416
0.997121921668
0.997099600787
0.997025737184
0.996936051273
0.996837337372
0.996780408677
0.996707632992
0.996618901217
0.996514088856
0.99639305751
0.996255658018
0.996101733551
0.995931122538
0.995743661351
0.995539186672
0.995317537537
0.995078557022
0.994822093602
0.994548002197
0.99425614493
0.993946391651
0.993625391761
0.993285850041
0.992928120096
0.992552102246
0.992157704516
0.997474225554
0.997416837769
0.997343931696
0.997255366066
0.997174825207
0.997118595247
0.997046686745
0.996958975988
0.99685532525
0.996735577157
0.996599564647
0.996447113063
0.996278043541
0.996092176055
0.995889332067
0.995669336737
0.995432020709
0.995177221503
0.994904784528
0.994614563784
0.994306422289
0.993992651005
0.993654655481
0.993298436181
0.992923890199
0.992530923089
0.997770997672
0.997714460767
0.99766052061
0.9975836819
0.997492533984
0.997437065914
0.997366102981
0.997279505818
0.9971771145
0.997058751478
0.996924232266
0.996773360451
0.996605937797
0.996421766155
0.996220650383
0.996002400731
0.995766834695
0.995513778393
0.995243067521
0.99495454794
0.994659779456
0.994341528216
0.99400512706
0.993650460641
0.993277423216
0.992885918273
0.998048126625
0.99799252201
0.997941563628
0.997865919423
0.997790488008
0.997735855135
0.997665926111
0.997580541186
0.99747951803
0.997362657202
0.997229747556
0.997080569748
0.996914906956
0.996732539506
0.996533254235
0.996316845476
0.996083116935
0.995831883005
0.995562969597
0.995276214571
0.994988700307
0.994672133492
0.994337372171
0.993984297714
0.993612802026
0.993222787037
0.998305663518
0.998251089195
0.998203122386
0.998107507452
0.99806871987
0.998015005608
0.997946210425
0.997862150297
0.99776261647
0.997647382184
0.997516209181
0.997368853668
0.997205069993
0.997024621146
0.996827272996
0.99661280303
0.996381000659
0.996131668394
0.995864622479
0.995596140677
0.995299420533
0.99498458734
0.994651507655
0.994300060155
0.993930135007
0.993541633184
0.998543681399
0.998490249419
0.998445282567
0.998365304531
0.998327273838
0.998274573561
0.998207025713
0.99812441571
0.998026506428
0.997913037718
0.997783740101
0.997638340339
0.997476567394
0.997298155685
0.997102854882
0.996890423328
0.996660635837
0.996413283114
0.996148172089
0.995886960574
0.995592075727
0.995279021058
0.994947660018
0.994597869336
0.994229538174
0.993842567258
0.998762272502
0.998710093671
0.998668139912
0.998603400768
0.998566209755
0.998514631639
0.998448460516
0.998367440942
0.998271305807
0.998159756111
0.998032484991
0.997889185941
0.997729558108
0.997553311508
0.997360169235
0.997149876057
0.996922190669
0.99667689235
0.996434734551
0.996159815023
0.995866813914
0.995555576997
0.995225965534
0.994877855208
0.99451113504
0.994125706328
0.998961538997
0.9989271627
0.998871830103
0.998821840918
0.998785586143
0.998735259491
0.998670614848
0.99859135682
0.998497167895
0.998387701229
0.998262616163
0.998121572487
0.997964232235
0.997790277644
0.997599410465
0.997391354107
0.997165853037
0.996922678965
0.996687792495
0.996414871563
0.996123795851
0.995814408659
0.995486570177
0.995140156109
0.994775056332
0.994391173627
0.999141631229
0.999110194599
0.999042407519
0.999020707244
0.998985505782
0.998936576266
0.998873623303
0.998796306887
0.998704249223
0.998597061606
0.998474348523
0.998335717646
0.998180808777
0.998009276129
0.997820794483
0.997615069316
0.997391833362
0.997176006998
0.996923190577
0.996652312531
0.996363195121
0.996055680576
0.995729629339
0.995384918364
0.995021439505
0.994639098023
0.999302740383
0.999274241916
0.99922104669
0.999200104292
0.999166086343
0.999118723291
0.999057660145
0.998982491727
0.998892776292
0.998788064726
0.99866790615
0.998531871336
0.998379545475
0.99821056365
0.998024570317
0.997821263409
0.997624473265
0.997391781357
0.997141136681
0.996872335126
0.996585197923
0.996279567898
0.995955307281
0.99561229565
0.99525042805
0.994869613293
0.999456487088
0.999419531219
0.999380232018
0.999360153995
0.999327485982
0.999281890767
0.999222942371
0.999150152891
0.999063011554
0.998960993502
0.998843590972
0.998710318877
0.998560728609
0.998394418577
0.998211021052
0.998010208439
0.997820673257
0.997590296579
0.997341856054
0.997075151069
0.996790002483
0.996486255644
0.996163776273
0.995822448065
0.995430404393
0.99505437844
0.999581436684
0.999546378488
0.999520124845
0.99950103868
0.999469904323
0.999426311757
0.999369737111
0.999299597657
0.999215281387
0.999116191597
0.999001744692
0.998871411736
0.998724699996
0.998561172193
0.998380447843
0.998209919063
0.997999843647
0.997743258463
0.997496282142
0.997230927375
0.996947023062
0.996642778372
0.996325160573
0.995988669729
0.995633204644
0.995258678467
0.99649406061
0.996468042164
0.996392622208
0.996301108764
0.996223349476
0.996097701844
0.996023491107
0.995933061665
0.995826313643
0.995703135176
0.995563404697
0.995406993234
0.995233766637
0.995043587683
0.994836317991
0.994611819731
0.994369957106
0.994110597587
0.993833612943
0.993538880031
0.993226281413
0.992895705789
0.992553505546
0.992096850412
0.991713737388
0.991312288661
0.996848950624
0.996823939728
0.996749347433
0.996658806862
0.996584095666
0.996474848408
0.996401385344
0.99631184123
0.996206103737
0.996084047532
0.995945536995
0.995790428907
0.995618575033
0.995429824523
0.995224026065
0.995001029765
0.994760688752
0.994502860482
0.994227407782
0.993934199644
0.993623111794
0.99329402707
0.992952247057
0.992593247331
0.992215989035
0.991820382595
0.997184083803
0.997160091764
0.997086400079
0.996996914103
0.996889018022
0.996832191242
0.996759540492
0.996670956196
0.996566311574
0.996445465779
0.996308267128
0.996154556267
0.995984169165
0.995796939848
0.99559270281
0.995371295078
0.99513255792
0.994876338204
0.994602489447
0.994310872564
0.994001356381
0.993678581882
0.993339256364
0.992981737923
0.992605926403
0.992211729457
0.997533747371
0.997476519698
0.997403810591
0.997315475003
0.997225859163
0.997169742801
0.997097976888
0.997010435583
0.996906975256
0.99678743712
0.996651651087
0.9964994395
0.996330620606
0.996145011661
0.995942431619
0.995722703374
0.995485655559
0.995231123936
0.994958952405
0.994668993689
0.994361109745
0.99404558809
0.993707826204
0.993351834769
0.992977510434
0.992584758418
0.997829609266
0.997773257279
0.997701623222
0.997641212804
0.997542858533
0.997487522445
0.997416723081
0.997330316788
0.997228142542
0.997110019564
0.996975756624
0.996825155278
0.996658013894
0.996474131168
0.996273309096
0.996055355377
0.995820085284
0.995567323026
0.99529690269
0.995008668811
0.994702476633
0.994394203898
0.994058055168
0.993703634152
0.993330834705
0.992939560038
0.998105734587
0.998050346558
0.997997941003
0.997922560827
0.997840033165
0.99778555294
0.997715812574
0.99763064842
0.997529873885
0.99741328393
0.997280665317
0.997131794822
0.996966448533
0.996784404663
0.996585446785
0.996369366383
0.996135964719
0.995885054137
0.995616458862
0.995330015395
0.995040825979
0.994724539788
0.994390051099
0.994037240796
0.993666000454
0.993276231803
0.99836216593
0.998307843104
0.998258480344
0.998184452769
0.998117405597
0.998063869011
0.997995292718
0.997911487772
0.997812240096
0.997697317466
0.997566476246
0.997419466366
0.997256041335
0.997075955687
0.99687897312
0.996664867957
0.996433426958
0.996184450463
0.995917752983
0.995633163341
0.995351245939
0.995036716814
0.994703931431
0.994352768077
0.993983116686
0.993594878137
0.998598960102
0.998545818695
0.998499518733
0.998412889197
0.998375013942
0.998322520835
0.998255222366
0.998172910512
0.998075332303
0.997962222269
0.997833304371
0.997688299246
0.997526929154
0.997348927505
0.997154035588
0.996942009791
0.996712622096
0.996465660957
0.996200931568
0.995938136583
0.995643592379
0.995330867004
0.994999823434
0.994650338136
0.994282300176
0.993895610323
0.998816177696
0.998764352435
0.998721131858
0.998649891123
0.99861288429
0.998561553538
0.998495682994
0.998415015287
0.998319266817
0.998208126033
0.998081291248
0.997938442752
0.997779273205
0.997603485894
0.997410803113
0.997200961667
0.996973718802
0.996728851533
0.996466156473
0.996210645103
0.995918014235
0.99560713366
0.995277864336
0.994930081862
0.994563675344
0.994178546293
0.99901391393
0.998978342144
0.998923438184
0.998867113806
0.998831080996
0.998781046551
0.998716756616
0.998637908875
0.998544170702
0.998435190427
0.998310608123
0.998170080923
0.998013258093
0.997839823398
0.99764946978
0.997441915496
0.997216905868
0.996974206196
0.996737849428
0.996465347095
0.99617467346
0.99586567148
0.995538201279
0.995192138714
0.994827373978
0.994443810275
0.999192290356
0.99915974848
0.999106590397
0.999064607141
0.999029672292
0.998981093791
0.99891856767
0.998841735323
0.998750209774
0.998643585178
0.998521454237
0.99838341777
0.998229106932
0.99805816261
0.997870252871
0.997665088496
0.997442393652
0.997201927977
0.99697284806
0.996702426423
0.996413745157
0.996106646469
0.99578099106
0.99543665634
0.995073534759
0.994691532271
0.999351452334
0.999321953697
0.999263180595
0.999242446418
0.999208757536
0.999161822214