/*--------------------------------*- C++ -*----------------------------------*\
| =========                 |                                                 |
| \\      /  F ield         | OpenFOAM: The Open Source CFD Toolbox           |
|  \\    /   O peration     | Version:  2406                                  |
|   \\  /    A nd           | Website:  www.openfoam.com                      |
|    \\/     M anipulation  |                                                 |
\*---------------------------------------------------------------------------*/
FoamFile
{
    version     2.0;
    format      ascii;
    arch        "LSB;label=32;scalar=64";
    class       volVectorField;
    location    "0";
    object      U;
}
// * * * * * * * * * * * * * * * * * * * * * * * * * * * * * * * * * * * * * //

dimensions      [0 1 -1 0 0 0 0];

internalField   uniform (0 0 0);

boundaryField
{
    wall
    {
        type            slip;
    }
    inlet
    {
        type            fixedValue;
        value           nonuniform List<vector> 0();
    }
    outlet
    {
        type            zeroGradient;
    }
    oversetPatch
    {
        type            overset;
        value           uniform (0 0 0);
    }
    seed
    {
        type            fixedValue;
        value           nonuniform List<vector> 0();
    }
    procBoundary23to15
    {
        type            processor;
        value           uniform (0 0 0);
    }
    procBoundary23to17
    {
        type            processor;
        value           uniform (0 0 0);
    }
    procBoundary23to22
    {
        type            processor;
        value           uniform (0 0 0);
    }
    procBoundary23to27
    {
        type            processor;
        value           uniform (0 0 0);
    }
    procBoundary23to29
    {
        type            processor;
        value           uniform (0 0 0);
    }
    procBoundary23to30
    {
        type            processor;
        value           uniform (0 0 0);
    }
    procBoundary23to31
    {
        type            processor;
        value           uniform (0 0 0);
    }
}


// ************************************************************************* //
