/*--------------------------------*- C++ -*----------------------------------*\
| =========                 |                                                 |
| \\      /  F ield         | OpenFOAM: The Open Source CFD Toolbox           |
|  \\    /   O peration     | Version:  2406                                  |
|   \\  /    A nd           | Website:  www.openfoam.com                      |
|    \\/     M anipulation  |                                                 |
\*---------------------------------------------------------------------------*/
FoamFile
{
    version     2.0;
    format      ascii;
    arch        "LSB;label=32;scalar=64";
    class       pointScalarField;
    location    "0";
    object      motionScale;
}
// * * * * * * * * * * * * * * * * * * * * * * * * * * * * * * * * * * * * * //

dimensions      [0 0 0 0 0 0 0];

internalField   nonuniform List<scalar> 
42775
(
0
0
0
0
0
0
0
0
0
0
0
0
0
0
0
0
0
0
0
0
0
0
0
0
0
0
0
0
0
0
0
0
0
0
0
0
0
0
0
0
0
0
0
0
0
0
0
0
0
0
0
0
0
0
0
0
0
0
0
0
0
0
0
0
0
0
0
0
0
0
0
0
0
0
0
0
0
0
0
0
0
0
0
0
0
0
0
0
0
0
0
0
0
0
0
0
0
0
0
0
0
0
0
0
0
0
0
0
0
0
0
0
0
0
0
0
0
0
0
0
0
0
0
0
0
0
0
0
0
0
0
0
0
0
0
0
0
0
0
0
0
0
0
0
0
0
0
0
0
0
0
0
0
0
0
0
0
0
0
0
0
0
0
0
0
0
0
0
0
0
0
0
0
0
0
0
0
0
0
0
0
0
0
0
0
0
0
0
0
0
0
0
0
0
0
0
0
0
0
0
0
0
0
0
0
0
0
0
0
0
0
0
0
0
0
0
0
0
0
0
0
0
0
0
0
0
0
0
0
0
0
0
0
0
0
0
0
0
0
0
0
0
0
0
0
0
0
0
0
0
0
0
0
0
0
0
0
0
0
0
0
0
0
0
0
0
0
0
0
0
0
0
0
0
0
0
0
0
0
0
0
0
0
0
0
0
0
0
0
0
0
0
0
0
0
0
0
0
0
0
0
0
0
0
0
0
0
0
0
0
0
0
0
0
0
0
0
0
0
0
0
0
0
0
0
0
0
0
0
0
0
0
0
0
0
0
0
0
0
0
0
0
0
0
0
0
0
0
0
0
0
0
0
0
0
0
0
0
0
0
0
0
0
0
0
0
0
0
0
0
0
0
0
0
0
0
0
0
0
0
0
0
0
0
0
0
0
0
0
0
0
0
0
0
0
0
0
0
0
0
0
0
0
0
0
0
0
0
0
0
0
0
0
0
0
0
0
0
0
0
0
0
0
0
0
0
0
0
0
0
0
0
0
0
0
0
0
0
0
0
0
0
0
0
0
0
0
0
0
0
0
0
0
0
0
0
0
0
0
0
0
0
0
0
0
0
0
0
0
0
0
0
0
0
0
0
0
0
0
0
0
0
0
0
0
0
0
0
0
0
0
0
0
0
0
0
0
0
0
0
0
0
0
0
0
0
0
0
0
0
0
0
0
0
0
0
0
0
0
0
0
0
0
0
0
0
0
0
0
0
0
0
0
0
0
0
0
0
0
0
0
0
0
0
0
0
0
0
0
0
0
0
0
0
0
0
0
0
0
0
0
0
0
0
0
0
0
0
0
0
0
0
0
0
0
0
0
0
0
0
0
0
0
0
0
0
0
0
0
0
0
0
0
0
0
0
0
0
0
0
0
0
0
0
0
0
0
0
0
0
0
0
0
0
0
0
0
0
0
0
0
0
0
0
0
0
0
0
0
0
0
0
0
0
0
0
0
0
0
0
0
0
0
0
0
0
0
0
0
0
0
0
0
0
0
0
0
0
0
0
0
0
0
0
0
0
0
0
0
0
0
0
0
0
0
0
0
0
0
0
0
0
0
0
0
0
0
0
0
0
0
0
0
0
0
0
0
0
0
0
0
0
0
0
0
0
0
0
0
0
0
0
0
0
0
0
0
0
0
0
0
0
0
0
0
0
0
0
0
0
0
0
0
0
0
0
0
0
0
0
0
0
0
0
0
0
0
0
0
0
0
0
0
0
0
0
0
0
0
0
0
0
0
0
0
0
0
0
0
0
0
0
0
0
0
0
0
0
0
0
0
0
0
0
0
0
0
0
0
0
0
0
0
0
0
0
0
0
0
0
0
0
0
0
0
0
0
0
0
0
0
0
0
0
0
0
0
0
0
0
0
0
0
0
0
0
0
0
0
0
0
0
0
0
0
0
0
0
0
0
0
0
0
0
0
0
0
0
0
0
0
0
0
0
0
0
0
0
0
0
0
0
0
0
0
0
0
0
0
0
0
0
0
0
0
0
0
0
0
0
0
0
0
0
0
0
0
0
0
0
0
0
0
0
0
0
0
0
0
0
0
0
0
0
0
0
0
0
0
0
0
0
0
0
0
0
0
0
0
0
0
0
0
0
0
0
0
0
0
0
0
0
0
0
0
0
0
0
0
0
0
0
0
0
0
0
0
0
0
0
0
0
0
0
0
0
0
0
0
0
0
0
0
0
0
0
0
0
0
0
0
0
0
0
0
0
0
0
0
0
0
0
0
0
0
0
0
0
0
0
0
0
0
0
0
0
0
0
0
0
0
0
0
0
0
0
0
0
0
0
0
0
0
0
0
0
0
0
0
0
0
0
0
0
0
0
0
0
0
0
0
0
0
0
0
0
0
0
0
0
0
0
0
0
0
0
0
0
0
0
0
0
0
0
0
0
0
0
0
0
0
0
0
0
0
0
0
0
0
0
0
0
0
0
0
0
0
0
0
0
0
0
0
0
0
0
0
0
0
0
0
0
0
0
0
0
0
0
0
0
0
0
0
0
0
0
0
0
0
0
0
0
0
0
0
0
0
0
0
0
0
0
0
0
0
0
0
0
0
0
0
0
0
0
0
0
0
0
0
0
0
0
0
0
0
0
0
0
0
0
0
0
0
0
0
0
0
0
0
0
0
0
0
0
0
0
0
0
0
0
0
0
0
0
0
0
0
0
0
0
0
0
0
0
0
0
0
0
0
0
0
0
0
0
0
0
0
0
0
0
0
0
0
0
0
0
0
0
0
0
0
0
0
0
0
0
0
0
0
0
0
0
0
0
0
0
0
0
0
0
0
0
0
0
0
0
0
0
0
0
0
0
0
0
0
0
0
0
0
0
0
0
0
0
0
0
0
0
0
0
0
0
0
0
0
0
0
0
0
0
0
0
0
0
0
0
0
0
0
0
0
0
0
0
0
0
0
0
0
0
0
0
0
0
0
0
0
0
0
0
0
0
0
0
0
0
0
0
0
0
0
0
0
0
0
0
0
0
0
0
0
0
0
0
0
0
0
0
0
0
0
0
0
0
0
0
0
0
0
0
0
0
0
0
0
0
0
0
0
0
0
0
0
0
0
0
0
0
0
0
0
0
0
0
0
0
0
0
0
0
0
0
0
0
0
0
0
0
0
0
0
0
0
0
0
0
0
0
0
0
0
0
0
0
0
0
0
0
0
0
0
0
0
0
0
0
0
0
0
0
0
0
0
0
0
0
0
0
0
0
0
0
0
0
0
0
0
0
0
0
0
0
0
0
0
0
0
0
0
0
0
0
0
0
0
0
0
0
0
0
0
0
0
0
0
0
0
0
0
0
0
0
0
0
0
0
0
0
0
0
0
0
0
0
0
0
0
0
0
0
0
0
0
0
0
0
0
0
0
0
0
0
0
0
0
0
0
0
0
0
0
0
0
0
0
0
0
0
0
0
0
0
0
0
0
0
0
0
0
0
0
0
0
0
0
0
0
0
0
0
0
0
0
0
0
0
0
0
0
0
0
0
0
0
0
0
0
0
0
0
0
0
0
0
0
0
0
0
0
0
0
0
0
0
0
0
0
0
0
0
0
0
0
0
0
0
0
0
0
0
0
0
0
0
0
0
0
0
0
0
0
0
0
0
0
0
0
0
0
0
0
0
0
0
0
0
0
0
0
0
0
0
0
0
0
0
0
0
0
0
0
0
0
0
0
0
0
0
0
0
0
0
0
0
0
0
0
0
0
0
0
0
0
0
0
0
0
0
0
0
0
0
0
0
0
0
0
0
0
0
0
0
0
0
0
0
0
0
0
0
0
0
0
0
0
0
0
0
0
0
0
0
0
0
0
0
0
0
0
0
0
0
0
0
0
0
0
0
0
0
0
0
0
0
0
0
0
0
0
0
0
0
0
0
0
0
0
0
0
0
0
0
0
0
0
0
0
0
0
0
0
0
0
0
0
0
0
0
0
0
0
0
0
0
0
0
0
0
0
0
0
0
0
0
0
0
0
0
0
0
0
0
0
0
0
0
0
0
0
0
0
0
0
0
0
0
0
0
0
0
0
0
0
0
0
0
0
0
0
0
0
0
0
0
0
0
0
0
0
0
0
0
0
0
0
0
0
0
0
0
0
0
0
0
0
0
0
0
0
0
0
0
0
0
0
0
0
0
0
0
0
0
0
0
0
0
0
0
0
0
0
0
0
0
0
0
0
0
0
0
0
0
0
0
0
0
0
0
0
0
0
0
0
0
0
0
0
0
0
0
0
0
0
0
0
0
0
0
0
0
0
0
0
0
0
0
0
0
0
0
0
0
0
0
0
0
0
0
0
0
0
0
0
0
0
0
0
0
0
0
0
0
0
0
0
0
0
0
0
0
0
0
0
0
0
0
0
0
0
0
0
0
0
0
0
0
0
0
0
0
0
0
0
0
0
0
0
0
0
0
0
0
0
0
0
0
0
0
0
0
0
0
0
0
0
0
0
0
0
0
0
0
0
0
0
0
0
0
0
0
0
0
0
0
0
0
0
0
0
0
0
0
0
0
0
0
0
0
0
0
0
0
0
0
0
0
0
0
0
0
0
0
0
0
0
0
0
0
0
0
0
0
0
0
0
0
0
0
0
0
0
0
0
0
0
0
0
0
0
0
0
0
0
0
0
0
0
0
0
0
0
0
0
0
0
0
0
0
0
0
0
0
0
0
0
0
0
0
0
0
0
0
0
0
0
0
0
0
0
0
0
0
0
0
0
0
0
0
0
0
0
0
0
0
0
0
0
0
0
0
0
0
0
0
0
0
0
0
0
0
0
0
0
0
0
0
0
0
0
0
0
0
0
0
0
0
0
0
0
0
0
0
0
0
0
0
0
0
0
0
0
0
0
0
0
0
0
0
0
0
0
0
0
0
0
0
0
0
0
0
0
0
0
0
0
0
0
0
0
0
0
0
0
0
0
0
0
0
0
0
0
0
0
0
0
0
0
0
0
0
0
0
0
0
0
0
0
0
0
0
0
0
0
0
0
0
0
0
0
0
0
0
0
0
0
0
0
0
0
0
0
0
0
0
0
0
0
0
0
0
0
0
0
0
0
0
0
0
0
0
0
0
0
0
0
0
0
0
0
0
0
0
0
0
0
0
0
0
0
0
0
0
0
0
0
0
0
0
0
0
0
0
0
0
0
0
0
0
0
0
0
0
0
0
0
0
0
0
0
0
0
0
0
0
0
0
0
0
0
0
0
0
0
0
0
0
0
0
0
0
0
0
0
0
0
0
0
0
0
0
0
0
0
0
0
0
0
0
0
0
0
0
0
0
0
0
0
0
0
0
0
0
0
0
0
0
0
0
0
0
0
0
0
0
0
0
0
0
0
0
0
0
0
0
0
0
0
0
0
0
0
0
0
0
0
0
0
0
0
0
0
0
0
0
0
0
0
0
0
0
0
0
0
0
0
0
0
0
0
0
0
0
0
0
0
0
0
0
0
0
0
0
0
0
0
0
0
0
0
0
0
0
0
0
0
0
0
0
0
0
0
0
0
0
0
0
0
0
0
0
0
0
0
0
0
0
0
0
0
0
0
0
0
0
0
0
0
0
0
0
0
0
0
0
0
0
0
0
0
0
0
0
0
0
0
0
0
0
0
0
0
0
0
0
0
0
0
0
0
0
0
0
0
0
0
0
0
0
0
0
0
0
0
0
0
0
0
0
0
0
0
0
0
0
0
0
0
0
0
0
0
0
0
0
0
0
0
0
0
0
0
0
0
0
0
0
0
0
0
0
0
0
0
0
0
0
0
0
0
0
0
0
0
0
0
0
0
0
0
0
0
0
0
0
0
0
0
0
0
0
0
0
0
0
0
0
0
0
0
0
0
0
0
0
0
0
0
0
0
0
0
0
0
0
0
0
0
0
0
0
0
0
0
0
0
0
0
0
0
0
0
0
0
0
0
0
0
0
0
0
0
0
0
0
0
0
0
0
0
0
0
0
0
0
0
0
0
0
0
0
0
0
0
0
0
0
0
0
0
0
0
0
0
0
0
0
0
0
0
0
0
0
0
0
0
0
0
0
0
0
0
0
0
0
0
0
0
0
0
0
0
0
0
0
0
0
0
0
0
0
0
0
0
0
0
0
0
0
0
0
0
0
0
0
0
0
0
0
0
0
0
0
0
0
0
0
0
0
0
0
0
0
0
0
0
0
0
0
0
0
0
0
0
0
0
0
0
0
0
0
0
0
0
0
0
0
0
0
0
0
0
0
0
0
0
0
0
0
0
0
0
0
0
0
0
0
0
0
0
0
0
0
0
0
0
0
0
0
0
0
0
0
0
0
0
0
0
0
0
0
0
0
0
0
0
0
0
0
0
0
0
0
0
0
0
0
0
0
0
0
0
0
0
0
0
0
0
0
0
0
0
0
0
0
0
0
0
0
0
0
0
0
0
0
0
0
0
0
0
0
0
0
0
0
0
0
0
0
0
0
0
0
0
0
0
0
0
0
0
0
0
0
0
0
0
0
0
0
0
0
0
0
0
0
0
0
0
0
0
0
0
0
0
0
0
0
0
0
0
0
0
0
0
0
0
0
0
0
0
0
0
0
0
0
0
0
0
0
0
0
0
0
0
0
0
0
0
0
0
0
0
0
0
0
0
0
0
0
0
0
0
0
0
0
0
0
0
0
0
0
0
0
0
0
0
0
0
0
0
0
0
0
0
0
0
0
0
0
0
0
0
0
0
0
0
0
0
0
0
0
0
0
0
0
0
0
0
0
0
0
0
0
0
0
0
0
0
0
0
0
0
0
0
0
0
0
0
0
0
0
0
0
0
0
0
0
0
0
0
0
0
0
0
0
0
0
0
0
0
0
0
0
0
0
0
0
0
0
0
0
0
0
0
0
0
0
0
0
0
0
0
0
0
0
0
0
0
0
0
0
0
0
0
0
0
0
0
0
0
0
0
0
0
0
0
0
0
0
0
0
0
0
0
0
0
0
0
0
0
0
0
0
0
0
0
0
0
0
0
0
0
0
0
0
0
0
0
0
0
0
0
0
0
0
0
0
0
0
0
0
0
0
0
0
0
0
0
0
0
0
0
0
0
0
0
0
0
0
0
0
0
0
0
0
0
0
0
0
0
0
0
0
0
0
0
0
0
0
0
0
0
0
0
0
0
0
0
0
0
0
0
0
0
0
0
0
0
0
0
0
0
0
0
0
0
0
0
0
0
0
0
0
0
0
0
0
0
0
0
0
0
0
0
0
0
0
0
0
0
0
0
0
0
0
0
0
0
0
0
0
0
0
0
0
0
0
0
0
0
0
0
0
0
0
0
0
0
0
0
0
0
0
0
0
0
0
0
0
0
0
0
0
0
0
0
0
0
0
0
0
0
0
0
0
0
0
0
0
0
0
0
0
0
0
0
0
0
0
0
0
0
0
0
0
0
0
0
0
0
0
0
0
0
0
0
0
0
0
0
0
0
0
0
0
0
0
0
0
0
0
0
0
0
0
0
0
0
0
0
0
0
0
0
0
0
0
0
0
0
0
0
0
0
0
0
0
0
0
0
0
0
0
0
0
0
0
0
0
0
0
0
0
0
0
0
0
0
0
0
0
0
0
0
0
0
0
0
0
0
0
0
0
0
0
0
0
0
0
0
0
0
0
0
0
0
0
0
0
0
0
0
0
0
0
0
0
0
0
0
0
0
0
0
0
0
0
0
0
0
0
0
0
0
0
0
0
0
0
0
0
0
0
0
0
0
0
0
0
0
0
0
0
0
0
0
0
0
0
0
0
0
0
0
0
0
0
0
0
0
0
0
0
0
0
0
0
0
0
0
0
0
0
0
0
0
0
0
0
0
0
0
0
0
0
0
0
0
0
0
0
0
0
0
0
0
0
0
0
0
0
0
0
0
0
0
0
0
0
0
0
0
0
0
0
0
0
0
0
0
0
0
0
0
0
0
0
0
0
0
0
0
0
0
0
0
0
0
0
0
0
0
0
0
0
0
0
0
0
0
0
0
0
0
0
0
0
0
0
0
0
0
0
0
0
0
0
0
0
0
0
0
0
0
0
0
0
0
0
0
0
0
0
0
0
0
0
0
0
0
0
0
0
0
0
0
0
0
0
0
0
0
0
0
0
0
0
0
0
0
0
0
0
0
0
0
0
0
0
0
0
0
0
0
0
0
0
0
0
0
0
0
0
0
0
0
0
0
0
0
0
0
0
0
0
0
0
0
0
0
0
0
0
0
0
0
0
0
0
0
0
0
0
0
0
0
0
0
0
0
0
0
0
0
0
0
0
0
0
0
0
0
0
0
0
0
0
0
0
0
0
0
0
0
0
0
0
0
0
0
0
0
0
0
0
0
0
0
0
0
0
0
0
0
0
0
0
0
0
0
0
0
0
0
0
0
0
0
0
0
0
0
0
0
0
0
0
0
0
0
0
0
0
0
0
0
0
0
0
0
0
0
0
0
0
0
0
0
0
0
0
0
0
0
0
0
0
0
0
0
0
0
0
0
0
0
0
0
0
0
0
0
0
0
0
0
0
0
0
0
0
0
0
0
0
0
0
0
0
0
0
0
0
0
0
0
0
0
0
0
0
0
0
0
0
0
0
0
0
0
0
0
0
0
0
0
0
0
0
0
0
0
0
0
0
0
0
0
0
0
0
0
0
0
0
0
0
0
0
0
0
0
0
0
0
0
0
0
0
0
0
0
0
0
0
0
0
0
0
0
0
0
0
0
0
0
0
0
0
0
0
0
0
0
0
0
0
0
0
0
0
0
0
0
0
0
0
0
0
0
0
0
0
0
0
0
0
0
0
0
0
0
0
0
0
0
0
0
0
0
0
0
0
0
0
0
0
0
0
0
0
0
0
0
0
0
0
0
0
0
0
0
0
0
0
0
0
0
0
0
0
0
0
0
0
0
0
0
0
0
0
0
0
0
0
0
0
0
0
0
0
0
0
0
0
0
0
0
0
0
0
0
0
0
0
0
0
0
0
0
0
0
0
0
0
0
0
0
0
0
0
0
0
0
0
0
0
0
0
0
0
0
0
0
0
0
0
0
0
0
0
0
0
0
0
0
0
0
0
0
0
0
0
0
0
0
0
0
0
0
0
0
0
0
0
0
0
0
0
0
0
0
0
0
0
0
0
0
0
0
0
0
0
0
0
0
0
0
0
0
0
0
0
0
0
0
0
0
0
0
0
0
0
0
0
0
0
0
0
0
0
0
0
0
0
0
0
0
0
0
0
0
0
0
0
0
0
0
0
0
0
0
0
0
0
0
0
0.459594834749
0.471306976604
0.482349780396
0.492686916797
0.502285445591
0.511114809847
0.519146220354
0.526354317422
0.532716328371
0.538211661205
0.542823098113
0.471646585378
0.483548244028
0.494768230303
0.505269935296
0.515020178856
0.523988185948
0.532144960074
0.5394649696
0.545925290406
0.551505191874
0.556187347368
0.483039036019
0.49511829192
0.506504297133
0.517160183618
0.527052549452
0.53615041847
0.544424603305
0.55184941464
0.558401789857
0.564060871745
0.568809234787
0.493734785821
0.505979438534
0.517520039202
0.528319481061
0.538344158476
0.547562910979
0.555946376605
0.563468722405
0.57010676
0.575839517422
0.58064948
0.503699826367
0.516097433732
0.527780983287
0.538713149839
0.548860141927
0.55819063139
0.56667509769
0.574287578029
0.581004770714
0.586805600569
0.591672473231
0.5129025087
0.525440408276
0.537255057306
0.548308932315
0.558568073673
0.568001001865
0.576578053518
0.584273149427
0.591062886686
0.596926098125
0.60184511881
0.521312896315
0.533978215648
0.545911921653
0.557076312553
0.567437277955
0.576963203034
0.585624296985
0.593394377265
0.600249951461
0.60616977124
0.611136109832
0.528904497359
0.541684189118
0.55372474945
0.564988318037
0.575440650842
0.58505001342
0.593786502558
0.601623845017
0.608538470142
0.61450905882
0.61951783076
0.535653392191
0.548534254393
0.560669325186
0.572020605236
0.58255373367
0.592236871753
0.601040018478
0.608936822102
0.615903644518
0.621919105756
0.626965379847
0.541537794583
0.554506482839
0.566723590395
0.578150998199
0.588754245044
0.598501402872
0.60736238709
0.615310779187
0.622322883919
0.628377269898
0.633456072858
0.546539317732
0.559582374991
0.571868943416
0.583360803302
0.594023409302
0.603824758632
0.612734696919
0.620726750163
0.627777175822
0.633864500051
0.638970827193
0.550642290433
0.563746165046
0.576089532879
0.587634092417
0.598345230082
0.608190882624
0.617140839307
0.625168581501
0.632250328755
0.638364573278
0.643493394486
0.553833542215
0.566984601593
0.579372034214
0.590957475413
0.601706259038
0.611586275338
0.620567270296
0.628622691137
0.635728728493
0.641863848732
0.647010112414
0.556103186983
0.569287741744
0.581706453495
0.593320912909
0.604096416711
0.614000822363
0.623003845368
0.631078908971
0.638202183548
0.644352117397
0.649510757951
0.557444061832
0.570648380729
0.583085548323
0.594717129006
0.605508397675
0.615427192533
0.624443211195
0.632529862862
0.639663306062
0.645821978541
0.650987920091
0.557851947702
0.571062275126
0.583505053427
0.595141839014
0.605937900161
0.61586106923
0.624881038411
0.632971212651
0.640107746893
0.646269075689
0.651437236525
0.492027092199
0.504245423326
0.515761422599
0.526538021074
0.536541645346
0.545741164075
0.55410724287
0.561614071423
0.56823848115
0.573959518132
0.578759681688
0.504599642989
0.517011008229
0.52870741483
0.539651518066
0.549809509884
0.559150047174
0.56764359528
0.57526417987
0.581988489207
0.587795438979
0.59266742779
0.516480084841
0.529072277749
0.540937658363
0.552038627026
0.562341159632
0.571813718752
0.58042658644
0.588153639173
0.594971435614
0.600858773722
0.60579796194
0.527630252188
0.540390788866
0.552413454043
0.563660413851
0.574097446522
0.583692837522
0.592416702326
0.600242782746
0.607147521087
0.613109609946
0.61811127786
0.538015480175
0.550931640004
0.563099682573
0.574481560323
0.585042871933
0.594751742632
0.603578137669
0.611495678308
0.618480703316
0.624511811897
0.629571162533
0.547603522884
0.560662371078
0.572963687564
0.584469231353
0.595144439331
0.604957292959
0.613877623165
0.621878944299
0.628937503906
0.63503181926
0.640143988167
0.556363875504
0.569552274167
0.581974575405
0.593592364776
0.604370934756
0.614278139055
0.623283689692
0.631361007175
0.638486259569
0.644637893113
0.649797953749
0.56426957469
0.577574218965
0.590105064077
0.601823541777
0.612694817082
0.62268663146
0.631768592868
0.639914040423
0.647099073799
0.653302078444
0.658505056614
0.571296284959
0.584703723755
0.597330539621
0.609138029798
0.620091248341
0.630157839456
0.639307321282
0.647512963341
0.654750807303
0.660999187372
0.666240069605
0.577421837739
0.590918486057
0.603628578816
0.615513297707
0.626537601876
0.636669052711
0.64587709218
0.65413493132
0.661418563479
0.667706280436
0.672980018827
0.582627545165
0.596199713865
0.608980296569
0.620930378032
0.632014838102
0.642201169265
0.651458750358
0.659760744381
0.667083105326
0.673404090633
0.678705613584
0.586897483911
0.600531397259
0.613369605959
0.625373116125
0.636506743515
0.64673792513
0.656035989157
0.664374060369
0.671728061691
0.678076223632
0.683400441486
0.590218267942
0.603900076333
0.616782981509
0.628827928976
0.63999968524
0.650265644813
0.65959509721
0.667961138228
0.675339667411
0.681708895112
0.6870507034
0.592579860708
0.606295663708
0.619210291189
0.631284645849
0.642483459494
0.65277409677
0.662125820083
0.670511705032
0.677907634961
0.68429180632
0.68964609219
0.593974988398
0.607710848124
0.620644190862
0.632735894139
0.643950669385
0.654255863748
0.663620723768
0.672018313278
0.679424506219
0.685817491001
0.691179135561
0.594399367528
0.608141324436
0.621080356435
0.63317733341
0.644396960612
0.654706579885
0.664075432969
0.672476580141
0.679885892505
0.686281556052
0.69164543718
0.523401782428
0.536098632658
0.54806179805
0.559253532976
0.569639690039
0.579188621257
0.587870504645
0.595659132458
0.602530990508
0.608464810746
0.613442851455
0.536466661915
0.549359683645
0.561506112877
0.572867933647
0.583410771129
0.593102774154
0.601913930069
0.609817877809
0.616790971275
0.622811823297
0.62786260253
0.548808243852
0.561884954046
0.574202952571
0.585723974399
0.596413436361
0.606239302143
0.615171386103
0.623183189462
0.630250948612
0.636353170837
0.641471946604
0.560387662034
0.573635305183
0.586112927646
0.597782036371
0.608607858619
0.618558190605
0.627602690991
0.635714738459
0.642870465859
0.649048288086
0.654230228465
0.571169655649
0.584575246336
0.597200336889
0.609006226956
0.61995797257
0.63002321967
0.639171487991
0.647376048284
0.654612943242
0.660860507968
0.666100709148
0.581121441107
0.594671788029
0.607432003304
0.619363199608
0.630430279606
0.640600755574
0.649844024461
0.658133263004
0.665444436418
0.67175581191
0.677049309359
0.590212004766
0.603893722927
0.616776543902
0.62882141331
0.639993097752
0.650258991816
0.659588385092
0.66795437343
0.675332856418
0.681702044445
0.687043819606
0.598413967093
0.612213515224
0.625206282544
0.637353067059
0.648618516003
0.65896992154
0.668376480515
0.676811220134
0.684249985275
0.690670939637
0.696055935634
0.605702629517
0.619606331518
0.632696265772
0.644933101615
0.656281382993
0.666708314145
0.676183012941
0.684678449225
0.692170423068
0.698637060577
0.704060191569
0.612055491786
0.626049549288
0.639223762808
0.651538691491
0.662958791442
0.673451192729
0.682984947136
0.691532977449
0.699071047782
0.705577254663
0.711033411316
0.617453609915
0.631524132048
0.644769656579
0.657150650472
0.668631496829
0.679179264548
0.688762951352
0.697355442292
0.704932473318
0.711472118288
0.716956178749
0.621880848516
0.636013868816
0.649317670944
0.661752647269
0.673283122161
0.68387611566
0.693500582634
0.702129378789
0.709738218689
0.71630515938
0.721811994581
0.625323640925
0.639505128848
0.652854120177
0.665330949899
0.676899897436
0.687527945668
0.697184017085
0.705840945609
0.713474430281
0.720062516228
0.725586992222
0.627771827351
0.641987709764
0.65536876615
0.667875291033
0.679471532259
0.690124446734
0.699802934442
0.708479814379
0.716130775153
0.722733854053
0.728270836962
0.629218043232
0.643454215701
0.65685418679
0.669378227247
0.680990566424
0.691658146059
0.701349853046
0.710038497789
0.717699762977
0.72431168152
0.729856037848
0.629657952743
0.643900292941
0.657306013507
0.669835377977
0.681452610101
0.692124647029
0.701820371703
0.710512591948
0.718176988688
0.724791593539
0.730338190528
0.553461501974
0.566607065811
0.578989366394
0.590570046397
0.601314445774
0.611190460172
0.620167840595
0.628220038222
0.63532324703
0.641455936375
0.64660016899
0.566988041658
0.580332513264
0.592900543383
0.604653511478
0.615556539376
0.625577330636
0.63468545816
0.642854233829
0.650059734559
0.656280325655
0.661497995065
0.579761848082
0.593292476708
0.606034287285
0.617948417786
0.628999791557
0.639155938844
0.64838627305
0.656663983429
0.663965045439
0.670267735224
0.67555397873
0.591743420452
0.605447189368
0.618350587356
0.63041453225
0.641603768115
0.65188567014
0.661229510296
0.669608371297
0.676998142183
0.683377024287
0.688726893833
0.602896964539
0.616760635852
0.629813226908
0.642015456289
0.653331907387
0.663729817934
0.673178335809
0.681650452518
0.689121984941
0.695571073207
0.700979555391
0.613189220819
0.627199361417
0.640388574949
0.652717401093
0.664150280493
0.674654330228
0.684198590566
0.692755976191
0.70030224512
0.706815488924
0.712277518188
0.622588729284
0.636731724662
0.650044827528
0.662488418407
0.674026812375
0.684627021772
0.69425799474
0.70289258243
0.710506496135
0.717077790367
0.722588257743
0.631067752753
0.645329846098
0.658753979733
0.671300394147
0.6829332952
0.693619605428
0.703328195206
0.712031864197
0.719706287785
0.726329493563
0.73188326438
0.638601285916
0.652968600634
0.666490802562
0.679128010618
0.690844336948
0.701606628186
0.711383690102
0.720148281553
0.727876051374
0.73454500887
0.740136933821
0.645166551479
0.65962510424
0.673232320509
0.685948215466
0.697736822212
0.708564924333
0.718401274914
0.727218601287
0.734992533551
0.741701069737
0.747325991628
0.650744398226
0.665280128808
0.678959241778
0.691741665814
0.703591368814
0.714475083153
0.724361519923
0.733223382787
0.741036289354
0.747778231731
0.753430997099
0.655318522675
0.66991731012
0.683655153148
0.696491910629
0.708391498363
0.719320608381
0.729247919317
0.738146117663
0.745990813264
0.752759996037
0.758435460287
0.658875216129
0.673522888758
0.687306254809
0.70018511957
0.712123359197
0.723087635412
0.733046602878
0.741972936185
0.74984224076
0.756632506559
0.762325535209
0.661404225834
0.676086580639
0.689902239246
0.702810969222
0.714776618998
0.725765829316
0.735747238491
0.744693513443
0.752580257353
0.759385461169
0.765090932717
0.662898119015
0.677600930138
0.691435633894
0.704361975712
0.71634378783
0.727347698824
0.737342337627
0.746300366948
0.754197388997
0.761011395697
0.766724195738
0.663352521055
0.678061549932
0.691902042257
0.704833736746
0.716820460738
0.727828839146
0.737827498086
0.746789099036
0.754689243963
0.761505925145
0.767220955762
0.58196108718
0.595523602414
0.608295175103
0.620236902347
0.631313674076
0.641492991519
0.650744241513
0.65904059312
0.66635800528
0.672674739741
0.677972712685
0.595916605328
0.609680346341
0.622639704543
0.634755522568
0.64599248365
0.656317910753
0.665701028536
0.674114884657
0.681535340183
0.687940572551
0.693312442749
0.609091830992
0.62304378629
0.636178730683
0.648457274495
0.659843914551
0.670305815232
0.679812058825
0.688335589719
0.695852188434
0.702339964916
0.707780739756
0.62144669583
0.63557359584
0.648871691328
0.661301381937
0.672826997749
0.683415563544
0.693036038331
0.701661280629
0.709267007029
0.715831276153
0.721335882415
0.632944935885
0.647233300537
0.660681921874
0.673251009841
0.684904746649
0.695610035575
0.70533573049
0.714054620443
0.721742373716
0.728377012832
0.733940319363
0.643552879009
0.657989046215
0.671575405843
0.68427199838
0.696042876123
0.706854837884
0.716676649373
0.725481045314
0.733243660013
0.739942493853
0.745559327701
0.653238683488
0.667808825289
0.681519989637
0.69433206702
0.706208996771
0.717117489077
0.727026237108
0.735907934905
0.743738195561
0.750495009681
0.756160168018
0.661974315625
0.676664479517
0.690487408657
0.703402862152
0.715374682236
0.726369504991
0.736355965123
0.745306727921
0.753197396162
0.760005961132
0.76571423217
0.669734522847
0.684530655947
0.698452227015
0.711458881564
0.72351437948
0.734585295866
0.744640219393
0.753651796615
0.761595628818
0.768449716231
0.774195893278
0.676496309094
0.691384272127
0.705391292944
0.71847692047
0.730604845902
0.741741595083
0.75185572136
0.760919860564
0.768909619064
0.775803011895
0.781581902605
0.682240368647
0.697205966042
0.7112852033
0.724437549034
0.736626638363
0.747818958228
0.75798303564
0.767091501688
0.775119972084
0.782046480003
0.787852919559
0.686950277808
0.701979273074
0.716117466292
0.729324261395
0.741563249108
0.752800886536
0.76300568173
0.772150265047
0.780210263528
0.787163729324
0.792992585931
0.690612228231
0.705690352167
0.719874220405
0.733123187317
0.745400810097
0.756673523976
0.766909823957
0.776082341882
0.784166716012
0.791141015965
0.796987190955
0.693215907739
0.70832887506
0.722545130884
0.735823994726
0.748129000469
0.759426568505
0.769685185484
0.778877485441
0.786979115949
0.793968160559
0.799826588385
0.694753840426
0.709887354524
0.724122706402
0.737419195132
0.749740341035
0.761052556017
0.771324322168
0.780528275268
0.78864006568
0.795637792279
0.80150343336
0.695221628033
0.710361386687
0.724602541836
0.737904386354
0.750230436467
0.761547101545
0.771822862342
0.781030355237
0.789145235764
0.796145599092
0.802013430621
0.608669563678
0.622615513159
0.635744855613
0.648018208688
0.659400075049
0.672843661391
0.682337222161
0.690845102886
0.698343169556
0.704809623751
0.710226379657
0.623019572999
0.637168637181
0.650487398487
0.662936230245
0.674479441887
0.687946464337
0.697570788324
0.706195033798
0.713794997332
0.720348825658
0.725838406832
0.636563722128
0.650902633529
0.664398365539
0.677011069689
0.688704883158
0.699446672741
0.711924572874
0.720657161958
0.728351949568
0.734987047134
0.740544334323
0.649261442068
0.663776684143
0.677436712127
0.690201477549
0.702034965465
0.712903921649
0.725357271607
0.734190061376
0.741972495441
0.748682668708
0.754302469569
0.661076062759
0.675753920888
0.689565392849
0.702470251084
0.714432347601
0.725418325836
0.735396826193
0.746756524311
0.754619356612
0.761398353838
0.767075429136
0.671973563104
0.686800156393
0.700750074602
0.713782931014
0.725862462452
0.7369552273
0.747029802028
0.756058829042
0.766258153918
0.773099688389
0.778828772387
0.681921785382
0.696883086007
0.710958326963
0.724106981273
0.736292687113
0.747481933507
0.757643248837
0.766749264347
0.774775595103
0.781700273133
0.787505190707
0.690892462045
0.705974339676
0.720161697304
0.733413885533
0.745694459027
0.756969851393
0.767208556694
0.776383206966
0.784469441416
0.7914453311
0.79729282731
0.698860154955
0.714048403368
0.728334615369
0.74167803597
0.754042150038
0.765393347866
0.775700100726
0.784935050759
0.793073869729
0.800094675944
0.805979486542
0.705801710503
0.721082063215
0.735453826773
0.748876156509
0.761312479841
0.772729154023
0.783094636712
0.792381586648
0.800565713316
0.807625186933
0.8135420936
0.711697724529
0.727055885545
0.74149988646
0.754988808028
0.76748603132
0.778957889042
0.78937283209
0.798703539402
0.806925759945
0.814017716676
0.819961563713
0.716531704626
0.73195336314
0.746456289244
0.759999503574
0.772546350853
0.784063146116
0.79451833814
0.803884626859
0.812137799088
0.819256127476
0.825221829014
0.720289788846
0.735760625351
0.750309171061
0.76389440047
0.776479631049
0.788031165643
0.798517453581
0.807911214016
0.816188266813
0.823326927559
0.829309466918
0.722961642383
0.738467341763
0.75304821817
0.766663213586
0.779275626633
0.790851752315
0.801360041557
0.810773228771
0.819067159341
0.826220181807
0.832214607707
0.724539773895
0.740066025309
0.754665957124
0.768298492228
0.780926918311
0.792517526071
0.803038767849
0.812463384404
0.820767243607
0.82792871116
0.833930123852
0.725019778288
0.740552274919
0.755157996585
0.76879586038
0.7814291507
0.79302415698
0.803549332062
0.812977423047
0.821284296163
0.828448326766
0.834451859495
0.633371952204
0.647666288113
0.664160674701
0.676735885359
0.688391693746
0.699095066873
0.708814931724
0.717524158586
0.725198503672
0.731816084596
0.737358781383
0.648080390694
0.662579299609
0.679143046695
0.69189241522
0.703708149267
0.714557078347
0.724408015202
0.733233762945
0.741010039089
0.747714939133
0.753330350273
0.661959500448
0.676649461443
0.690472201683
0.706174443765
0.718139115374
0.729123504718
0.739096333479
0.748030360303
0.755901287096
0.762687210896
0.768370048352
0.674968277204
0.689835529924
0.703823281954
0.719540748683
0.731643200881
0.742752804773
0.752838212941
0.76187216112
0.769830357737
0.776690924287
0.782435828697
0.687069706922
0.702100306706
0.71623999181
0.731954264236
0.744183221879
0.75540769328
0.765596282214
0.774721721396
0.78275974635
0.789688524608
0.795490096102
0.698229482034
0.713409335989
0.727687748635
0.741023973239
0.755724859971
0.767053786823
0.777336107318
0.786544568835
0.794654952367
0.801645490978
0.807498315485
0.708415193899
0.723730084563
0.738133917381
0.751585814448
0.764049182366
0.777658756967
0.788025338239
0.797308344057
0.805483616345
0.812529470279
0.818428143675
0.71759840375
0.733034037737
0.747549929657
0.761105086997
0.773662846657
0.785189520074
0.797635872502
0.806984978712
0.815217711138
0.822312479862
0.82825164205
0.725753550321
0.741295588545
0.755910155548
0.769556159583
0.782196880032
0.793798604444
0.804329786494
0.813763178003
0.823832345724
0.83096970362
0.836944066407
0.732857385289
0.748491461294
0.763191315571
0.776915771535
0.789628061626
0.801294457816
0.811883425905
0.821367769036
0.829723442811
0.836928936892
0.842966735826
0.738890464372
0.754602216452
0.769373997462
0.783164559656
0.795937097715
0.807657874181
0.818295371088
0.827822443498
0.836215127363
0.843452014625
0.849515713989
0.743836280758
0.759611366296
0.774441754172
0.788286138686
0.801107684856
0.812872650034
0.823549533741
0.833111239639
0.841533877682
0.848796133918
0.854880730813
0.747680968023
0.76350506731
0.778380785097
0.79226677074
0.805126166893
0.816925228406
0.827632471032
0.837220840143
0.845666508623
0.852948242587
0.859049026282
0.750414208414
0.766273033346
0.781180852244
0.795096282501
0.807982451189
0.819805612165
0.830534294135
0.840141474285
0.848603373256
0.855898818007
0.862010866476
0.752028525258
0.767907812908
0.782834542043
0.796767311156
0.809669238221
0.821506576802
0.832247860459
0.841866092713
0.850337520305
0.857641007735
0.863759658395
0.752519524981
0.768405029442
0.783337502834
0.797275537895
0.810182249847
0.822023892209
0.832769004469
0.84239058957
0.850864906718
0.85817083207
0.864291483138
0.65893993953
0.673553894143
0.68730260843
0.700145987124
0.712048004453
0.722975421389
0.732896995979
0.741785503261
0.749616649068
0.756368526911
0.762023038069
0.670900384925
0.688666512842
0.70260418298
0.715622221669
0.727684446449
0.738757502661
0.748810061439
0.757814863223
0.765747612237
0.772586420282
0.778313237634
0.685079271277
0.702907630112
0.717021294928
0.730201879242
0.742413065827
0.753621407523
0.763795514046
0.772908117389
0.780934947912
0.787854165149
0.793647797285
0.698366184648
0.716236070787
0.730512568617
0.743843404148
0.756192145664
0.767525274965
0.777811364275
0.787023161946
0.795136451267
0.802129468472
0.807984348618
0.710723825988
0.728614802806
0.743040830832
0.756509501574
0.768984287134
0.780431617593
0.790820049433
0.800122370105
0.808314440842
0.815374602233
0.82128512438
0.722117660648
0.7376123567
0.754571770333
0.768165782244
0.780755041261
0.792305942503
0.802787045673
0.8121711972
0.820434358551
0.827554999921
0.833515552746
0.732515091449
0.748144746819
0.762840506174
0.778779914843
0.791472053426
0.803115889462
0.81368000148
0.823137311084
0.831463898448
0.838638384941
0.844643386296
0.741887568778
0.757637737692
0.772445072846
0.788323775293
0.801107232316
0.812833418269
0.823470942299
0.832992812923
0.841375242595
0.848597020313
0.854640964095
0.750209469187
0.766065696381
0.780971114309
0.79488434276
0.809635569911
0.821433615252
0.832135065369
0.841713022357
0.850143838571
0.857406480517
0.863483979674
0.757457511927
0.773405355157
0.788395404801
0.802386195502
0.815340815083
0.827225517657
0.839650098316
0.849275827403
0.857747742129
0.865044988442
0.871150813789
0.765840795268
0.779637335883
0.794698642737
0.808754653082
0.821768420989
0.833706203754
0.844536609138
0.854232794517
0.864169137253
0.871494935041
0.877624053556
0.770878231662
0.786810754063
0.799864515582
0.813973522727
0.82703528276
0.839016057247
0.849884491198
0.85961382303
0.868180663838
0.875564343048
0.881748529061
0.774790001837
0.790770348839
0.805771913084
0.818029258098
0.831128000559
0.843141851153
0.854039486351
0.863794212369
0.872382742295
0.879784538836
0.88598343372
0.777565897497
0.793580039474
0.808612670562
0.820911872208
0.8340367261
0.846073899394
0.856992092172
0.866764937172
0.875368397014
0.882782862675
0.888992014474
0.779198538173
0.795232500259
0.810283342402
0.822614148525
0.835754352124
0.847805223029
0.858735472311
0.868518770792
0.877131123905
0.884552985724
0.890768113141
0.77968360886
0.795723451521
0.81077969551
0.823131862031
0.836276723457
0.848331748923