/*--------------------------------*- C++ -*----------------------------------*\
| =========                 |                                                 |
| \\      /  F ield         | OpenFOAM: The Open Source CFD Toolbox           |
|  \\    /   O peration     | Version:  2406                                  |
|   \\  /    A nd           | Website:  www.openfoam.com                      |
|    \\/     M anipulation  |                                                 |
\*---------------------------------------------------------------------------*/
FoamFile
{
    version     2.0;
    format      ascii;
    arch        "LSB;label=32;scalar=64";
    class       volScalarField;
    location    "0";
    object      p;
}
// * * * * * * * * * * * * * * * * * * * * * * * * * * * * * * * * * * * * * //

dimensions      [0 2 -2 0 0 0 0];

internalField   uniform 0;

boundaryField
{
    wall
    {
        type            zeroGradient;
    }
    inlet
    {
        type            zeroGradient;
    }
    outlet
    {
        type            fixedValue;
        value           nonuniform List<scalar> 0();
    }
    oversetPatch
    {
        type            overset;
        value           nonuniform List<scalar> 0();
    }
    seed
    {
        type            zeroGradient;
    }
    procBoundary19to2
    {
        type            processor;
        value           uniform 0;
    }
    procBoundary19to3
    {
        type            processor;
        value           uniform 0;
    }
    procBoundary19to4
    {
        type            processor;
        value           uniform 0;
    }
    procBoundary19to5
    {
        type            processor;
        value           uniform 0;
    }
    procBoundary19to9
    {
        type            processor;
        value           uniform 0;
    }
    procBoundary19to11
    {
        type            processor;
        value           uniform 0;
    }
    procBoundary19to12
    {
        type            processor;
        value           uniform 0;
    }
    procBoundary19to13
    {
        type            processor;
        value           uniform 0;
    }
    procBoundary19to21
    {
        type            processor;
        value           uniform 0;
    }
    procBoundary19to27
    {
        type            processor;
        value           uniform 0;
    }
}


// ************************************************************************* //
