/*--------------------------------*- C++ -*----------------------------------*\
| =========                 |                                                 |
| \\      /  F ield         | OpenFOAM: The Open Source CFD Toolbox           |
|  \\    /   O peration     | Version:  2406                                  |
|   \\  /    A nd           | Website:  www.openfoam.com                      |
|    \\/     M anipulation  |                                                 |
\*---------------------------------------------------------------------------*/
FoamFile
{
    version     2.0;
    format      ascii;
    arch        "LSB;label=32;scalar=64";
    class       volScalarField;
    location    "0.01";
    object      k;
}
// * * * * * * * * * * * * * * * * * * * * * * * * * * * * * * * * * * * * * //

dimensions      [0 2 -2 0 0 0 0];

internalField   nonuniform List<scalar> 
29767
(
2.06690993174e-12
1e-15
1e-15
3.24090373447e-08
1.497496902e-10
1.53933654142e-14
6.18302044714e-13
1.8469442068e-12
2.0156971067e-08
0.000255368394263
3.43329066366e-08
0.000491067367776
2.52064155327e-07
0.00059356323939
0.000406914031754
0.000332029342422
2.23502024188e-09
1.66054256819e-09
0.000455729644919
1.14380261802e-08
0.000330249446291
0.000441655848609
1.151855165e-08
0.000517099622464
9.31905908647e-09
1e-15
1e-15
1e-15
6.96266354366e-14
5.98650614195e-13
4.06347698405e-11
3.46618318172e-13
1.91484734794e-13
2.38849099319e-06
1e-15
1e-15
1.95590732894e-11
1.50647750256e-14
2.78215942032e-10
5.47290236224e-15
4.99313484242e-07
1e-15
1e-15
1e-15
1e-15
1e-15
1e-15
0.000283470704147
2.18674455297e-05
6.57786462265e-08
7.9004477753e-05
3.92110165828e-05
5.20638242033e-05
6.23064320404e-05
1.86101986729e-06
4.6317564816e-15
1e-15
1.06525090587e-14
5.78574551219e-14
2.4233569876e-13
1.09254836854e-12
1e-15
1.65158025986e-05
2.2140697959e-05
3.13024335665e-05
1.02052141072e-05
8.9976114145e-12
3.75586139945e-10
3.95878198649e-12
2.06558639749e-13
6.80821727119e-11
1e-15
2.57970176591e-11
4.3324849605e-09
5.79401495739e-11
1.00158488125e-09
3.82230307252e-09
1.15799941416e-13
1.5619885571e-09
1.1831829933e-13
0.000246801475543
0.000203579916164
5.89245872029e-07
4.8719023934e-05
2.86802945859e-08
6.64216194428e-06
0.000197532297254
1.81904560772e-05
0.000113394298252
0.000126730591191
0.000157156203024
9.05947464413e-05
0.000101844499267
6.87475582837e-05
0.000144472425199
0.000198929125284
1.48430008227e-06
2.4857424081e-07
9.89044481221e-07
1.06919814366e-10
3.06517921261e-14
1.6466030153e-11
6.34773300514e-14
5.51414845021e-06
2.86382487578e-06
4.98186006784e-07
1.96608418783e-07
1.35797153533e-08
6.29688226089e-05
4.74667622599e-06
3.60548141199e-06
1.95048953758e-08
4.5132485537e-13
9.66840384072e-08
2.25564978876e-10
1.82087771527e-07
1.08500673808e-08
1.39277331932e-08
3.42846264612e-07
6.87987753883e-06
2.77077532395e-07
2.5323280597e-06
2.2338413191e-06
4.44091323308e-09
9.61505005565e-14
7.05506833696e-11
6.83115798191e-11
2.4853190561e-05
4.30026196164e-05
1.65112075179e-07
1.46035850475e-08
6.38294017596e-12
2.34872973458e-07
1.69865236023e-11
1.77074535657e-08
1.25963778288e-05
6.07768007735e-06
2.21470574286e-08
1.26334727838e-13
5.86844497974e-10
9.32416573809e-12
0.000134410815973
9.27130636196e-05
1.07736221396e-06
2.72655421096e-06
0.000102466522433
2.59502543943e-06
0.000123618841697
0.000136910525928
3.36106004683e-07
9.65860626615e-05
8.20504225488e-07
0.000180042333131
1.03781585996e-07
3.15461392292e-07
0.000231837426617
0.000170076333773
3.46031307353e-06
0.000203270822517
4.37911584445e-07
1.52857779501e-06
0.000159282588687
0.000216727750651
2.18062104742e-08
0.000288491382691
0.000358699398566
1.50579754387e-07
0.000243704741356
1.12889678458e-07
0.000269150531945
0.000337764187953
2.17036793559e-07
2.33517707431e-07
0.000298335336552
1e-15
2.30100242781e-15
3.08311473506e-14
1.2271773451e-13
1e-15
1e-15
1e-15
1e-15
1e-15
4.28628273752e-15
5.57174005843e-13
1e-15
1e-15
5.4675103314e-12
3.0778288368e-08
3.19903219697e-09
2.11191641935e-09
1.10170609681e-06
7.2367404452e-09
3.10171155864e-15
1.52965097305e-13
4.20617299529e-09
1.91660107537e-07
5.14867892343e-11
1.57691711086e-12
1.00299381559e-06
1.1837415438e-06
1.00651585792e-09
1.22755673136e-06
1.37984619696e-09
1.13156403162e-07
4.59232392629e-11
2.35135875004e-07
1.86533288366e-07
5.38881322901e-12
2.71878783149e-12
9.89392058814e-08
2.07223035391e-07
1.73984407379e-11
9.6398380888e-12
4.96596063386e-07
1.30095281077e-07
5.83843557412e-11
5.76628313294e-08
4.26019811577e-07
1.34348200656e-10
2.68585750539e-07
5.58897350958e-11
1.51905936815e-07
1.9343359213e-09
4.60660455315e-07
2.1106975312e-10
1e-15
1e-15
1e-15
1e-15
0.00010691296749
3.17567119002e-14
1.76679264823e-07
5.37561125699e-08
1.54041859225e-06
6.82262940004e-12
5.21441754855e-15
1.42298902495e-11
0.000630900644828
4.38995480169e-07
0.000794767086711
7.87495404914e-08
0.000706303109411
0.000757699409534
0.000663253256676
1.49018037186e-15
1e-15
4.44418833197e-15
1e-15
6.30650916242e-05
1.84144795459e-15
0.000423383430813
1e-15
2.58221836443e-05
2.02797488163e-15
1e-15
1.07827632597e-15
0.000205681126098
1.48012209435e-05
1.8548624135e-11
1.15114600012e-11
0.000168796754918
6.36640056446e-12
5.66863025358e-13
3.1355391646e-05
9.28244112955e-12
0.000267802064986
0.000215643437702
3.86606794719e-09
1.3345424492e-10
7.28781430319e-05
1.50460484474e-10
2.30086763297e-14
1.71407295229e-08
1.02937867236e-10
7.580242221e-12
3.59282799544e-09
1.66310694987e-10
1.71918095755e-10
2.28526773905e-12
1.05570938824e-10
3.28215939008e-09
7.8298019741e-09
5.05001508158e-08
9.28398907826e-08
1.4964929992e-11
2.71545946855e-15
1.44035035268e-08
6.99555601158e-10
1e-15
1e-15
1e-15
1e-15
1e-15
1.56923036004e-10
1.56407883638e-15
1.50497704236e-10
1e-15
1e-15
1e-15
1e-15
6.15772624303e-08
3.07197303158e-07
9.24404577545e-05
3.17291581791e-05
3.07545180951e-07
1.13290500747e-07
6.37429260716e-05
2.75449132304e-06
0.000364968424621
0.000343669222755
5.34857338421e-06
2.90890976288e-06
0.000298727619412
2.624285223e-06
8.10783823528e-05
2.22243762832e-07
4.52056519804e-06
9.3601883079e-06
7.13571118456e-07
2.15694332215e-06
2.85468552033e-14
1e-15
5.98683850497e-13
9.03245196296e-15
1.61143831351e-12
1e-15
1.83801027923e-11
2.62501021008e-05
4.13964418845e-05
3.43549891714e-05
3.4238733015e-05
6.83911267444e-14
6.0829392531e-12
1e-15
1e-15
1.02840534099e-10
9.82081608971e-13
6.94572050213e-14
6.68238074518e-05
5.59863093258e-05
4.82093196245e-05
7.78191614482e-05
0.000145299405925
1.44246497176e-07
1.23019798792e-07
1.02678033772e-05
7.81771261032e-05
2.73785920028e-07
7.57701950648e-08
0.000130297259641
4.58582200566e-08
0.00013845377301
2.56194982825e-08
2.65815183834e-08
0.000101772048833
6.516078291e-09
6.63767354355e-06
0.000106440025879
0.000131223084171
1.43204457011e-07
2.00489399643e-05
2.09769056671e-07
4.87810019983e-06
9.6488459623e-05
1.14699977886e-05
9.08572930722e-07
1.16956593988e-06
5.16039658766e-05
5.17707439423e-07
0.000315204076557
0.000211509617259
6.10523526096e-07
2.50188286965e-07
0.000257269231385
3.90692228708e-07
1.11034311996e-06
0.000276779001221
8.04923167887e-07
0.000182654277512
1.77704334348e-06
6.80444379404e-07
0.000239922402434
1.14006961163e-06
7.57265236969e-07
0.000156226177108
0.000140019032938
7.16956788964e-07
9.82418886855e-07
0.000201034126162
9.17384320871e-05
0.00013181552603
0.000195959512535
0.000163362673895
1.67461000147e-10
6.28082330943e-13
4.26628386892e-09
1.03332998294e-05
1.11932976927e-05
7.37041113857e-06
7.96155367764e-06
5.0073111628e-10
1.6634074876e-07
2.91870633634e-08
7.74495129559e-05
7.95469849698e-05
8.26965961034e-05
5.369173898e-05
5.92326625497e-05
2.39625261701e-06
4.76580765343e-05
6.35059398813e-06
4.36650491387e-05
4.88428095431e-05
1.89916571446e-05
3.21306072262e-05
3.01152545901e-05
1.71695329824e-10
2.41819081018e-09
1.88045570914e-07
5.92178823643e-05
3.65559740952e-05
1.13821571909e-05
2.05218855023e-05
2.06511799279e-05
2.04128547641e-05
1.5848721421e-05
2.79134547898e-05
2.46209500307e-05
4.70446861172e-05
3.56785524727e-05
3.13645737674e-05
1.72377430406e-05
1.26648971953e-05
1.20947571335e-05
2.01567936401e-05
3.61973881744e-07
4.07560047474e-10
6.394353169e-07
3.21304952744e-09
1.51818190744e-07
2.88138881249e-09
2.8539852215e-07
1.08117636616e-05
8.68264473849e-06
5.98381086713e-06
7.00985671288e-07
1.3621492691e-05
0.000251536290092
3.97515568645e-07
0.00016157298637
5.20141231557e-05
2.78409182079e-05
3.91942188807e-05
2.67739450798e-05
5.37028804567e-08
1.75034294301e-08
5.47411311699e-13
5.04562209245e-10
3.91046096495e-07
9.4731234668e-09
1.1542879405e-11
7.94885214973e-05
0.000128011553013
0.000101883952048
9.27050943541e-05
1.5002002344e-08
1.03745899027e-14
6.99411430133e-11
4.57164086187e-14
2.58653456945e-10
7.52360971571e-13
1.12706955709e-09
4.16725418107e-05
1.08746341301e-05
3.55744480824e-05
1.19501094939e-07
1.09942841179e-06
2.38062696162e-09
8.17543860825e-08
8.50121143361e-07
6.36966802187e-10
2.04888444343e-07
6.26900731485e-09
1.03589680835e-11
0.000220480221822
7.13855183651e-08
2.49565057416e-11
5.54794908301e-07
5.84767726259e-09
9.99546645807e-13
3.34308836775e-11
1e-15
1e-15
9.16550906857e-12
6.16229514208e-15
3.18312077963e-12
2.9922212869e-11
0.000314703321129
2.3305379222e-10
0.000335148474721
1.77925243153e-09
1.5834363604e-10
0.000399273623568
0.000150771031692
7.80051548909e-05
2.7440572138e-05
0.00011095409914
1.12211204161e-10
2.23650425386e-14
3.45275677973e-10
1.29904268171e-07
1.89800501114e-13
8.61744021042e-09
2.30700062808e-09
2.34639093002e-05
0.000314087173193
1.87363242798e-08
0.000381277068291
9.64991490094e-08
1.00472101062e-08
5.38088211535e-07
5.38197108014e-05
8.93071566317e-05
0.000438800586073
1.30529378052e-06
2.75073779456e-07
2.50075029664e-09
9.3801568527e-09
0.000641192079606
4.17023196288e-08
0.000531450327908
1.22170529224e-07
7.28356429098e-09
0.000593865217788
7.09163610809e-10
0.000644943603569
0.000500037551067
1.56741384638e-07
0.00055808891203
0.000470154251885
7.1780707297e-15
2.73748467788e-15
1e-15
1e-15
1e-15
1e-15
1e-15
1e-15
1e-15
1e-15
7.65500726796e-13
5.39484921804e-14
1e-15
1e-15
2.14936105646e-15
1.2741301191e-12
1e-15
2.90121068671e-12
5.59026021122e-13
7.33727451983e-13
9.47006042731e-08
2.79352495821e-14
7.03981641798e-11
1.11583322001e-07
1.72491368502e-10
1.09699669241e-12
2.40765949749e-13
1.31011802348e-09
1.34953788112e-13
8.94581670166e-10
9.05938786226e-09
2.97365533729e-07
6.62390645996e-10
5.94792090709e-10
1.0740607364e-07
8.21997757808e-10
2.29329507756e-07
2.53943528783e-07
1.4583483626e-07
3.95698691916e-09
1.33766320645e-09
3.53678793819e-09
1.17529343444e-10
2.25976659118e-08
5.56801033657e-08
7.57720047537e-08
1.51522686151e-11
1.60193905564e-10
6.3217093853e-08
4.37339552212e-09
2.81025250102e-09
1.78946344497e-07
4.76189081038e-07
3.51977702041e-09
1.94644863497e-09
3.83790377127e-07
3.10272154094e-09
3.9238018559e-07
5.47209403878e-07
2.20482430035e-07
4.21227272198e-11
1.14075508075e-08
5.40377882519e-11
5.74671529947e-08
9.1319740123e-08
3.27143231238e-10
3.43021680489e-07
3.45436717885e-08
1.26865962448e-09
6.85276052961e-10
2.68204277618e-07
3.47612576851e-09
1.15501101634e-07
5.45506025253e-07
1.49871338403e-09
8.25252989814e-07
2.3535665829e-09
2.1819900263e-07
4.49145891812e-07
4.44422799176e-09
9.0085155607e-10
5.9700236177e-10
7.24981618751e-13
5.59058240006e-11
1.36712558573e-08
1.10462496933e-11
1.59384383187e-10
1.89970905626e-11
8.99632746812e-07
3.29837643049e-07
2.37781482604e-10
9.69475583719e-09
4.16231407123e-09
7.43071272463e-10
3.34651844909e-07
2.2806284206e-07
1.24362387951e-12
1e-15
5.36542765072e-14
4.29255616867e-15
2.01478366177e-14
1e-15
4.281326541e-14
0.000449147828806
1.27105488172e-11
6.37556902253e-11
0.000397021226778
2.09779408994e-06
5.90980378269e-07
2.05248941307e-06
4.07226631368e-07
5.14033000428e-05
4.2435236761e-05
2.20705163936e-09
7.20106250818e-07
1.16214300963e-10
3.3084138563e-08
1.03224400341e-09
2.35798168644e-10
5.23544853408e-08
6.85750403656e-08
9.41899317078e-11
3.7600137971e-08
6.088212624e-07
9.82625752987e-06
5.52308517316e-10
7.54563420469e-11
3.05542869983e-15
1e-15
1e-15
4.02712827095e-15
1e-15
1e-15
1e-15
1e-15
1e-15
1e-15
4.26292216539e-15
2.02643681867e-14
1e-15
1e-15
1e-15
1e-15
1e-15
1e-15
1e-15
1e-15
1e-15
1e-15
1e-15
1e-15
1e-15
1e-15
1.15247598638e-13
4.93609524822e-12
3.72295642577e-08
4.19604418802e-14
6.4000732727e-11
1.01973871855e-07
8.47793281118e-09
1e-15
1.54177477851e-15
1e-15
3.32356099168e-15
5.46712367218e-14
1e-15
1.44803670608e-15
1e-15
1e-15
1e-15
1e-15
1e-15
1e-15
1e-15
1.4469111434e-15
4.04406387492e-12
9.19404644939e-12
2.87591038281e-11
3.37696819285e-12
1.21137395276e-14
5.8729128483e-15
9.00407362951e-14
1e-15
1e-15
1e-15
1e-15
6.31500512843e-14
1.33578670676e-15
5.68407102388e-15
1.43262088997e-09
7.04281773629e-05
3.71937215201e-06
9.064611179e-05
6.98560557163e-09
1.75251779836e-05
3.80542966571e-09
3.63544141737e-12
1.3916450194e-15
1e-15
1.05924296167e-13
0.0597942258426
0.149544971258
1e-15
1e-15
1.27522073368e-15
1.77967699056e-14
1e-15
2.97040175462e-15
3.38552662987e-11
6.50769284038e-12
3.61320100967e-11
1.55931576738e-11
1e-15
1e-15
1e-15
1e-15
1e-15
1e-15
2.12318592547e-07
0.000511635225236
9.05735832115e-10
1e-15
1e-15
1e-15
2.55252138258e-14
2.39647207249e-14
2.42263583715e-14
2.76547046166e-14
2.01912331603e-12
2.20536734101e-14
1.14265029149e-14
7.83545303026e-11
1.89689905925e-10
6.58012726218e-11
2.17465691411e-10
1e-15
1e-15
1e-15
1e-15
1e-15
1e-15
1e-15
1e-15
1e-15
1e-15
1e-15
1e-15
1e-15
1e-15
3.2843142857e-13
4.83436984583e-13
4.21026848924e-13
4.12944832655e-13
1e-15
1e-15
1e-15
1.11809540067e-13
2.18360926021e-13
1.72002248425e-14
1.00855046826e-13
1e-15
1e-15
1e-15
1e-15
1e-15
1e-15
1e-15
1e-15
1e-15
1e-15
1e-15
1.37689366145e-15
1e-15
1e-15
1e-15
1e-15
1e-15
1e-15
1e-15
1e-15
1e-15
1.21575364065e-10
3.50966721037e-13
2.99964742022e-08
1.59108957893e-12
1.15937884181e-11
5.67514456647e-14
2.20130420611e-13
6.4056632806e-12
3.01959331097e-13
1e-15
4.92549910317e-14
3.99296869003e-13
4.75048623112e-14
1e-15
2.3275811169e-11
1e-15
4.35044360748e-14
1.90395223728e-11
2.38245096011e-14
1e-15
1e-15
1.10576556683e-13
7.85867512627e-12
2.47655276277e-15
3.07247011413e-12
7.86754154621e-12
5.2051666842e-12
4.54407639278e-14
3.92677798494e-10
1e-15
9.45546227272e-13
1e-15
1e-15
6.68371859404e-14
6.16493003004e-09
1e-15
1.03661631195e-10
1e-15
1e-15
3.05775399405e-14
1e-15
2.86913712372e-14
1e-15
4.91835610365e-13
6.23432938617e-14
9.33307091587e-15
4.76301735551e-14
1e-15
1e-15
5.91461756583e-13
1.44075602564e-15
5.92503028387e-14
1e-15
5.63944502402e-14
1e-15
1e-15
1e-15
1e-15
1e-15
5.3433436881e-15
9.75476457011e-11
1e-15
3.32871960924e-11
3.95490849036e-13
7.5058542476e-13
5.14584044864e-13
2.02280981316e-13
2.46650003762e-08
1e-15
1e-15
1.02442144122e-15
1e-15
1e-15
4.09832207072e-15
1.01124152102e-15
1.78758684923e-14
1e-15
1.65317452701e-05
1.83419556444e-05
2.13160771127e-15
1e-15
1e-15
1e-15
7.73152546249e-09
1.11316987002e-14
2.09746250904e-09
1.32804448659e-12
7.16471729859e-13
3.27595534011e-15
4.55610805065e-08
4.84038051202e-07
1e-15
1e-15
1e-15
1e-15
1e-15
1e-15
1e-15
3.72772267732e-11
1e-15
2.23423076538e-15
3.24516042763e-14
4.03149754648e-15
1e-15
1e-15
1e-15
1e-15
7.22777488214e-14
1.20040890338e-13
1.77762881007e-15
1e-15
1e-15
3.81542995615e-13
3.50901495216e-13
4.01880510163e-13
3.26252586543e-13
1e-15
1e-15
4.45088602175e-14
1e-15
4.61311069444e-05
4.49378152276e-13
2.44960717215e-07
9.19122379664e-14
1.14896587894e-12
1e-15
1e-15
1e-15
6.48750240869e-15
1.80093521472e-14
1e-15
1e-15
1e-15
1e-15
1e-15
1e-15
1e-15
1e-15
1e-15
1e-15
1e-15
1e-15
1.08343032659e-15
1e-15
1e-15
1e-15
1e-15
1e-15
1e-15
1e-15
1.02973790892e-15
1e-15
4.33080838359e-10
1.74476824762e-15
3.67884039969e-11
7.09084959341e-14
1e-15
1e-15
1e-15
1e-15
1e-15
1e-15
1e-15
1.573442463e-07
8.24393340152e-09
4.61106774469e-08
3.57120975838e-13
5.40845253458e-12
1e-15
1e-15
2.76921632115e-11
3.76439250052e-14
1.58989516221e-13
1.66831793132e-13
1e-15
1e-15
1e-15
1e-15
1e-15
1e-15
1.20380594413e-15
1e-15
1e-15
1e-15
1e-15
1e-15
1.51833317437e-14
1e-15
1e-15
1e-15
1e-15
8.33148891607e-14
1e-15
1e-15
0.00381521036476
0.000404703615516
0.00153278074731
3.05896985429e-12
1e-15
1e-15
1e-15
1e-15
1e-15
1e-15
1e-15
4.1605806999e-15
1e-15
1e-15
1e-15
1e-15
5.8492311524e-14
4.17359953656e-13
1e-15
1e-15
1e-15
1e-15
2.19055679336e-14
1e-15
0.00908103646834
0.000304009041332
0.000850728760015
9.80612890718e-10
1e-15
1e-15
1e-15
6.15470208447e-15
3.90778830424e-15
5.91494404541e-15
5.25303288286e-15
1e-15
1e-15
1e-15
1e-15
1.46214853752e-15
1e-15
1e-15
7.23973946356e-10
1e-15
4.21530581009e-15
1e-15
1e-15
1e-15
1e-15
1e-15
1e-15
1e-15
1e-15
1e-15
3.4479538129e-12
7.50443901296e-07
3.61737586549e-06
3.16296692898e-09
4.11268716862e-05
2.15379542104e-05
3.11575072128e-14
8.2976935653e-13
1e-15
2.03646369071e-07
4.76241050662e-11
1.26974017766e-12
1.60127831232e-12
8.41934798989e-05
4.62687135273e-08
1e-15
1e-15
2.15841085461e-15
1e-15
4.91789277772e-14
3.12550884819e-11
1e-15
3.22700675745e-10
1.02829019956e-07
5.12107128669e-10
0.000812500804782
8.70491490731e-05
0.000637676122178
2.27446868807e-12
8.86967715529e-08
7.01663087421e-07
1e-15
1.82796661515e-13
2.4721868217e-13
3.50091735739e-13
2.8234017914e-10
2.96526054503e-07
7.41577656183e-07
1e-15
1.59862250668e-07
0.00076780982402
5.81644662521e-15
5.4296536462e-15
1.63961456e-15
7.17131539973e-11
6.32516620897e-10
1.09021066581e-05
5.15974171758e-13
3.11430890844e-13
2.68603388239e-09
0.000127911692143
0.000731858010871
1e-15
1e-15
1e-15
1e-15
4.60584514469e-15
3.52278366249e-12
1e-15
2.06946824855e-12
3.77917464981e-14
1e-15
8.20135835299e-15
1e-15
1e-15
1e-15
1.96544787842e-15
6.29144164038e-12
1.05537916644e-14
7.11389822102e-12
3.10515427739e-10
1e-15
3.66300073409e-15
1.53230309327e-08
1.44709022004e-12
3.27220747853e-11
2.15120963764e-11
3.96286709092e-10
1.78591657644e-15
4.91182693016e-11
1.49687608539e-10
1e-15
1e-15
5.18960192682e-10
1e-15
1e-15
7.52276960481e-10
2.9243021569e-09
1.17243632298e-12
4.86243462908e-10
1.04731563259e-12
3.94705537433e-13
0.00317273470205
2.78597227781e-09
3.63081156382e-10
5.25094367301e-15
1.27863503837e-09
2.57000456588e-13
3.02728899932e-12
3.01775937385e-07
1.98769825258e-10
9.06102580637e-10
4.72531048759e-09
1.00189058868e-08
0.000142498155097
6.4329951277e-11
9.73540697054e-09
1.61638477118e-07
4.92263085811e-08
2.03083884143e-09
1.19640255214e-09
0.00197904548477
7.85520611886e-08
0.000219382158014
3.38670107715e-10
4.56874882254e-15
8.60651034077e-11
0.000424290635346
0.00359231879679
0.00522657767439
0.000560133589363
1.69489893664e-11
3.20036792952e-11
5.65508096602e-15
1e-15
0.00614469967088
0.000238861400204
1.21665118698e-12
2.73649383898e-13
0.00150687200719
1e-15
3.69174077208e-09
3.40408660744e-14
1.09314278724e-15
0.000191327707285
1e-15
1.90554829317e-13
1e-15
1.13949618362e-14
3.31497585499e-12
2.73342365005e-12
6.74312889159e-14
1e-15
1e-15
0.000102150568309
1e-15
0.000171997718057
1e-15
3.34749903373e-12
1e-15
0.000211635973038
1e-15
1.86985449955e-15
1e-15
5.90624292948e-05
8.59815511409e-05
1e-15
1e-15
0.00090022117359
1e-15
0.000122898487985
1.30517633271e-05
1e-15
1e-15
1.24992532864e-06
1.44837148839e-13
0.000204533089104
9.78636711679e-05
0.00065060902382
1e-15
0.000157099936215
1e-15
5.35531474128e-15
0.000123414581674
0.00112839056463
1.26853630508e-05
1e-15
1e-15
1.01725151658e-06
3.1446502472e-15
1.83826760979e-09
0.000846819062338
1.53603588445e-14
0.000404421161153
3.2018897659e-14
5.24193846187e-15
1.25441852497e-07
0.000883711015419
1e-15
4.302453294e-12
0.00108189543318
9.1752881454e-06
1e-15
3.33794093092e-12
0.00018809472556
4.31638764397e-13
1.19528546842e-14
0.00017683501512
7.91856493156e-10
4.39273861331e-11
1.71014419072e-15
2.71058126603e-12
1.22978290947e-10
2.44516859784e-15
1e-15
3.3411967427e-12
1.1598524466e-06
1e-15
0.000172639664721
1.803626189e-05
7.17311689451e-14
1.18438370898e-14
1e-15
0.00669556195403
0.00561173407652
4.95560599114e-12
1e-15
1e-15
0.00163163967598
0.00385189987436
0.00131508050733
0.00131898540899
0.00948755175019
1.79896066119e-13
1.0893468251e-13
1e-15
0.00480694958092
4.57516834865e-12
1e-15
0.000286885807874
1e-15
0.00438548502785
2.01492533528e-10
0.00423610714959
0.00577585272955
4.44589590244e-13
3.05817064139e-14
1e-15
0.0120637618917
0.00713748173918
4.52976472167e-15
4.63626081709e-09
1.26092071435e-07
1.57222094081e-13
1.46154978636e-13
0.00648655633031
7.06584475944e-12
9.0070583849e-13
0.00732021558344
0.000259392399271
0.0101452244318
4.6723354858e-11
4.78882098529e-09
1.68033965229e-06
8.17657549422e-07
8.44328061256e-15
2.86452187673e-13
4.23537679483e-09
6.16055777435e-13
1.19425850605e-12
0.00985991065803
0.0132174248698
4.19567241622e-09
3.763661103e-08
7.36818403039e-11
0.000707961558985
2.84739795131e-12
9.80458557909e-06
0.00563210000809
3.63537252829e-12
5.38601842849e-06
2.15043706019e-12
5.8703103876e-13
6.73622830257e-15
3.58763253369e-10
7.26392697721e-13
1.38516386977e-11
1.21355153557e-11
1.4854792567e-10
6.89295903955e-12
0.00073180157956
8.3462953401e-11
4.86290594191e-10
1.41154209684e-12
3.89193632921e-12
2.79261484728e-07
1.31870984843e-13
8.43207410452e-14
6.04392134866e-10
1e-15
3.48193732436e-14
6.22522836353e-09
1.3687365718e-12
1e-15
3.06403291979e-14
1e-15
7.54929094877e-13
1e-15
7.54184320778e-12
2.24773723673e-15
1e-15
1.01566773824e-06
2.74998801449e-14
1.20597388395e-07
3.16509506666e-11
4.51436691523e-12
2.35134367477e-08
7.62535135884e-08
1.58898680833e-05
1e-15
2.67688937811e-14
1.44108487541e-14
8.9687277519e-05
2.2377891705e-05
2.78843619327e-06
2.6951027452e-11
1e-15
5.2280294622e-07
1.20715227864e-11
9.83830202791e-05
5.27979358199e-07
1.55429999055e-06
8.42203755331e-14
6.50232931055e-13
9.64454843025e-05
7.88070845092e-13
2.8570474965e-05
6.38707775954e-08
7.88950688357e-10
1.02193895159e-10
1.04472815431e-07
1.73304356518e-09
3.36740420264e-08
4.43407070722e-10
4.81818240319e-08
2.79647322784e-09
4.13168602196e-09
4.49711235357e-11
8.94753290321e-07
3.51501494514e-09
2.54256563502e-07
1.78411944502e-09
7.57823169281e-08
7.17218174337e-09
1e-15
1e-15
1e-15
1e-15
1e-15
1e-15
1e-15
1e-15
1e-15
1e-15
1e-15
1e-15
1e-15
1.07091093273e-15
8.39974159839e-12
5.59721386464e-12
1e-15
6.50964702654e-15
1e-15
5.75184848675e-13
1e-15
1e-15
2.78203297453e-14
1e-15
1e-15
3.9814211321e-12
1e-15
1.61090809926e-12
1.89575364839e-11
4.97725205057e-13
1.43368989508e-12
1e-15
4.47534443304e-10
1.51904745362e-08
5.45090389926e-15
9.48157058683e-13
5.75044616714e-09
7.7252809273e-11
1e-15
2.69770972959e-09
1.80746168925e-09
4.3607853601e-11
2.50095858641e-05
2.78980359517e-06
2.86912078282e-05
4.12428169186e-05
1.34915960719e-05
1.7513520718e-10
2.36767836175e-07
7.2577275658e-06
4.44330069678e-11
4.53575252279e-07
1.13571486946e-11
7.1926387546e-06
1.79945414246e-06
5.5112520757e-07
6.56918153257e-08
9.55907368555e-13
1.58197898817e-07
1.51727913536e-11
4.31851024309e-11
4.72941235357e-10
2.78891264332e-12
0.00010541451814
1.13372553156e-07
6.84954840981e-10
2.85687192472e-11
1.20584412069e-06
4.12713977386e-11
1e-15
1e-15
1e-15
1.07761276894e-15
1.34157077529e-13
1e-15
1e-15
1e-15
1.14205986579e-15
1e-15
1.50461251038e-15
1.17637712999e-15
1.45107229448e-13
8.78706453514e-14
1e-15
1e-15
1e-15
1e-15
4.08000354245e-15
1e-15
1e-15
1e-15
1e-15
7.93758714533e-15
1.01091509399e-13
1e-15
1e-15
2.93102554271e-13
1e-15
1e-15
1e-15
1e-15
1e-15
1e-15
1e-15
1e-15
1e-15
1e-15
1e-15
1.08330585483e-15
1e-15
1e-15
1e-15
1e-15
1e-15
1e-15
1e-15
1e-15
1e-15
1e-15
1e-15
1e-15
1e-15
1e-15
1e-15
1e-15
1e-15
1e-15
1e-15
1e-15
1e-15
1e-15
1e-15
1e-15
1e-15
1e-15
1e-15
1e-15
1e-15
1e-15
1e-15
1.98579988891e-13
6.5189618117e-13
1e-15
1e-15
1e-15
1e-15
1.07008730902e-11
1e-15
1.27765010134e-15
1e-15
4.67212613605e-15
1e-15
2.30163241174e-15
1e-15
1e-15
1e-15
1e-15
1.26114761712e-14
1e-15
1e-15
1e-15
0.000160334994983
5.25443382067e-12
6.07585819503e-09
3.62349088299e-06
5.63861955523e-06
8.4696478357e-10
8.41604064956e-05
1.117928957e-08
1.99906074973e-10
2.65029740964e-10
5.89544212003e-12
3.92252668603e-15
1.5969186442e-08
9.46209097829e-11
2.06710818789e-05
2.4952326824e-08
0.000692553719289
4.74617445627e-08
0.000978238724589
3.97428099551e-08
0.00105914018312
1.11023265633e-07
1.29637899729e-08
1.31713062052e-10
2.01741399505e-15
1.42530911175e-14
2.64208602576e-05
1.78413522394e-11
6.18822082133e-12
1.77862054799e-11
8.00610159861e-07
1.9683168362e-14
6.09784798837e-12
5.29770603382e-06
4.52038471782e-10
1.39584085315e-11
3.59907262804e-13
1.15435540226e-14
1e-15
0.0132671591578
5.3373933789e-11
1.04207743579e-09
1.01317402869e-09
2.13498573365e-11
1e-15
1.56049255538e-13
1.37047666426e-06
4.03363734453e-11
1.49705902106e-07
2.71047495479e-14
1.06732326976e-12
2.34151043978e-10
1.7052960145e-12
6.36783727541e-08
9.36618928985e-09
2.87998574773e-11
6.5696099878e-12
1.58453708575e-13
2.57899830913e-10
9.92013594379e-11
1.50494067907e-06
9.90147812674e-10
7.31136160799e-05
1.62651528692e-09
5.49384546722e-13
5.16031409459e-10
1.3057649816e-05
2.666631132e-05
6.95833740629e-08
1e-15
1.66237217464e-09
6.79199295678e-12
5.06990286753e-15
0.000322077407033
9.53280674777e-10
5.00058278146e-09
1.22044315228e-12
8.15496012224e-13
6.04320073476e-09
1e-15
5.71813519579e-10
1.66857431291e-06
8.41404600613e-15
2.62903541186e-09
4.22222860725e-13
5.22812806592e-14
4.61861457288e-14
6.94524635198e-10
3.49346882139e-13
1e-15
1.39439434387e-05
5.82323636837e-14
5.69676381322e-12
0.00950730260617
3.56660031008e-09
1e-15
4.22405414104e-12
2.42991334124e-14
9.09984315422e-15
1e-15
1e-15
0.0178817113243
1e-15
1.26189874192e-11
6.0947024618e-13
8.58683649036e-09
8.66660071569e-10
3.26836467042e-14
3.96887702485e-09
1e-15
3.99281455683e-14
3.70750026936e-14
1e-15
1e-15
2.23102838118e-15
2.4393410677e-14
7.30866321033e-15
1e-15
1e-15
2.08012367584e-10
9.3339924605e-10
3.62348886701e-06
3.52647512984e-11
2.16168200728e-15
2.44856966773e-05
2.30067503432e-05
3.96535680727e-07
3.18957308323e-11
1.35597468324e-13
1.11281616695e-08
6.25621301547e-12
6.40633670593e-11
1.13588486953e-06
3.98176107212e-14
5.29977384278e-14
2.84981466808e-13
4.9684653413e-11
1.15026561021e-15
4.8697727794e-12
3.57090687593e-08
4.63690618033e-06
9.04306379275e-10
3.95838855828e-12
1.86796510454e-06
3.82668700918e-11
1.42825601878e-05
4.8298900616e-07
1.7679125816e-11
5.2665533476e-14
1.10138902601e-08
1.65457019784e-05
1.90133232569e-05
2.09413841353e-10
4.03552207061e-11
6.89020807886e-07
7.10000027733e-10
1.58812904004e-06
8.34216441162e-07
9.00047739687e-10
4.16579699688e-07
2.98521872951e-10
4.30344498391e-06
4.92058023554e-10
1.30461826321e-05
6.40343704984e-11
2.42543533701e-12
3.66386142911e-10
1.56024793334e-10
1.4192728853e-05
1.52134306449e-06
7.45893150843e-13
3.42824795053e-11
1.3256883282e-13
1.0682945285e-13
1.64050007558e-12
2.74756027654e-12
1.26762300681e-12
1e-15
1e-15
1.1299505281e-14
1e-15
1.23253960401e-14
3.91308703571e-13
2.59668013811e-10
1e-15
1e-15
1e-15
1e-15
1.86287485589e-13
1e-15
3.15407267144e-12
4.44250255871e-12
1e-15
1.38336944066e-14
2.20792547664e-14
1.91678771344e-06
5.4194276719e-08
9.3359088538e-09
3.35330827083e-05
5.58899729223e-13
8.88378060825e-07
3.74419016649e-12
1.87848069663e-07
1.02813211582e-15
3.24678993311e-07
3.12083451915e-09
1.53432382449e-09
3.95449630694e-10
2.45314448556e-06
1.65230118609e-06
1.39013417627e-10
6.10181027627e-11
1.50637302655e-05
1.77728775962e-09
6.33683053417e-07
1.31505537905e-10
1.46968621573e-13
6.04820778012e-09
1.01881155091e-13
7.65782826613e-08
1e-15
5.70218211683e-11
2.41564684791e-11
0.000139909594841
1.52310156172e-10
0.000259493974378
3.50366034765e-13
2.01861937737e-07
1.67012255417e-07
2.27466044036e-14
3.57593887079e-11
0.000174484928363
1.9846760076e-13
5.45984729044e-08
2.76222792238e-11
7.41088323878e-07
9.3421271345e-13
6.41848225436e-13
2.72521404549e-07
3.71006119393e-08
8.66997439357e-14
3.09126113406e-08
7.20625999647e-15
1.15408014134e-13
7.63468310553e-13
1.47170554554e-15
1.03963953898e-13
3.09734888546e-15
2.98868894908e-12
6.40118385064e-12
3.19179857413e-11
2.21177472418e-12
4.13570823553e-15
7.7441126556e-14
1e-15
2.03767911616e-13
2.03436313868e-11
9.94485094716e-11
1.85707820633e-11
4.21629443248e-13
5.10460463377e-11
2.57160796348e-12
1.92585740982e-14
1e-15
1e-15
1e-15
1e-15
1e-15
6.78842348287e-15
1e-15
1e-15
1e-15
1e-15
3.52480449505e-12
1.69041507588e-11
3.70918380646e-05
1.60222212974e-05
1.66333789542e-09
2.19376900597e-05
3.32032578142e-12
5.96245409544e-12
4.22582465037e-12
9.88877912569e-05
4.6488157558e-10
2.79297653859e-05
3.38135942698e-10
6.18811570297e-05
0.000123779176773
3.60314387234e-10
2.49953676288e-10
3.50839972349e-05
2.0313162664e-10
8.86436577009e-12
4.76356880044e-06
1.73016403038e-05
3.77954362133e-11
1e-15
1e-15
1e-15
1e-15
1e-15
1e-15
1e-15
1e-15
1e-15
1e-15
1e-15
1e-15
1e-15
1e-15
6.46173436241e-14
2.145591567e-15
1e-15
1e-15
1e-15
1e-15
1e-15
1e-15
1e-15
1e-15
1e-15
1e-15
1e-15
1e-15
6.43683347853e-08
7.77881662692e-09
1e-15
1.09288678966e-10
1.0389536267e-11
1.47143540963e-09
1.06829025517e-12
3.28096376392e-10
9.62666340503e-12
9.09917530283e-11
1.11314689682e-08
2.36929239065e-14
1e-15
1e-15
1e-15
1e-15
1e-15
1e-15
4.29384134645e-08
2.97797979738e-06
1.06641713794e-05
0.00154710496204
3.33885715034e-06
7.66465576935e-08
1.57168967445e-05
2.0282287675e-06
2.56355851889e-06
1.50879646927e-06
1.54877518725e-11
6.06791709323e-12
9.96750944892e-14
1e-15
1.18932419807e-14
6.65093196716e-13
2.24780762055e-14
3.88848017193e-11
2.79940206136e-14
1e-15
1e-15
1e-15
1e-15
1.29685923961e-14
6.66012398095e-12
1.36012788033e-12
7.67201230806e-15
1e-15
1.7655205526e-12
2.5452990408e-14
1.21056826151e-13
2.55350388237e-13
1.65878368972e-15
6.01970324791e-14
1e-15
1.05609716109e-15
8.07395903122e-15
1e-15
1e-15
1e-15
1e-15
1e-15
1e-15
1e-15
1e-15
8.33577299498e-14
3.62734827317e-13
2.34348119989e-15
1e-15
1e-15
1e-15
1e-15
3.16077585621e-15
1.32597882159e-12
1e-15
1e-15
1.13583866115e-15
1e-15
1e-15
1e-15