/*--------------------------------*- C++ -*----------------------------------*\
| =========                 |                                                 |
| \\      /  F ield         | OpenFOAM: The Open Source CFD Toolbox           |
|  \\    /   O peration     | Version:  2406                                  |
|   \\  /    A nd           | Website:  www.openfoam.com                      |
|    \\/     M anipulation  |                                                 |
\*---------------------------------------------------------------------------*/
FoamFile
{
    version     2.0;
    format      ascii;
    arch        "LSB;label=32;scalar=64";
    class       surfaceScalarField;
    location    "0.01";
    object      meshPhi;
}
// * * * * * * * * * * * * * * * * * * * * * * * * * * * * * * * * * * * * * //

dimensions      [0 3 -1 0 0 0 0];

oriented        oriented;

internalField   nonuniform List<scalar> 
85682
(
2.63957994559e-10
-6.55719667262e-10
1.19598562661e-12
-5.65883872037e-10
-3.51377648582e-12
2.64817730864e-10
-4.82888911507e-12
9.22194308865e-12
1.85721487732e-10
-6.52948969055e-10
-6.13238669926e-10
2.56489482364e-10
-1.77499465941e-12
1.74354808838e-10
2.02470796714e-12
8.51477538549e-12
-6.214531572e-10
1.13855693965e-11
1.86569018869e-10
-8.87975931452e-12
-5.69237213256e-10
-5.35631369927e-10
-1.07511243843e-11
2.01834007821e-12
-6.16642496363e-12
3.27217053395e-12
2.5419766156e-10
5.14471837695e-12
5.59329387863e-12
1.7897925717e-10
-5.56829669962e-10
9.35009307837e-12
7.87131576623e-12
-8.79958359944e-12
-1.31948492641e-10
6.87738294725e-11
-1.04021636188e-10
4.51956831673e-11
1.2064296477e-13
-1.42004847051e-10
5.5135076939e-11
-1.19016673345e-10
4.40149822784e-11
7.4335663123e-12
4.72191510722e-11
-1.47794592584e-10
3.98954203291e-11
-1.27986238557e-10
-4.70386335418e-11
-6.68620628728e-12
1.07791678216e-10
-1.13859637109e-10
4.86548149859e-11
-1.07819952279e-10
4.8390551618e-11
4.52130883578e-12
5.65162790466e-11
-1.35832663506e-10
-1.25827481224e-10
-1.22481757838e-12
6.5806647336e-11
-1.18364958436e-10
-1.28921019976e-10
5.61957820449e-11
5.26399349524e-11
-4.13141168397e-11
-9.43992732793e-12
4.22075097411e-11
-1.17167833437e-10
9.54106287696e-12
4.79229360923e-11
-1.40932793026e-10
-1.23156973408e-10
4.86307602386e-11
-1.33475477571e-10
-2.66976611529e-10
2.6678562846e-10
-1.30256798968e-12
3.52450222849e-11
5.19390812984e-13
-3.14064398269e-12
-2.69067694876e-10
2.604554557e-10
3.58856041e-12
2.69662885309e-10
3.69438655744e-13
-4.01052593068e-11
3.94938092994e-13
-2.68660311358e-10
-2.66530346163e-10
-7.74706126649e-13
5.35492435578e-13
2.68796029261e-10
-2.6866991883e-10
-1.45482817079e-12
3.44961983757e-12
-3.43447513888e-10
-2.64371256002e-10
1.0469091191e-11
1.24739460157e-11
-1.04109691992e-11
-5.28650615831e-11
-5.38163632399e-11
-5.98309035463e-11
-6.94382725125e-11
-6.12398637379e-11
-6.63314283579e-11
2.45078805878e-10
2.68716386706e-12
5.73167090585e-12
-4.30566133516e-11
-4.02896545669e-11
1.80838452237e-10
-6.82515957194e-11
8.95499083066e-14
-1.27948085156e-12
6.86082970286e-11
4.29022162122e-12
-3.37476715696e-13
-2.05692408263e-14
-5.09261612479e-12
-6.65158371832e-11
-3.23847799655e-12
6.7197312212e-11
5.45238227094e-12
-1.05384078414e-10
-1.12385674541e-11
-9.11039864257e-10
9.1541073878e-10
1.67297940654e-12
3.01971510079e-12
4.34368692553e-12
-1.52127651777e-09
-9.21948376339e-10
9.21737837383e-10
-9.12483242496e-12
-1.53070392848e-09
4.75759027273e-10
-9.27387697374e-12
1.85576242416e-10
5.29046470581e-12
6.01283833908e-12
4.22419249038e-12
-4.94937279069e-10
6.32764798813e-12
2.47765887689e-12
-4.89812826042e-10
-2.54126498221e-12
2.64735179348e-10
6.47442545646e-13
2.5495233893e-10
4.82203070255e-12
-2.47713355667e-12
5.04495065778e-12
-6.51567759513e-12
1.88198097142e-10
-4.94200103695e-10
4.70359217801e-12
-1.12507613676e-10
-6.63462858794e-11
-1.98084532144e-11
-2.13548150715e-09
-1.54967654296e-11
-2.14444573311e-09
-9.19058825968e-10
-2.22349466979e-13
-5.25958089592e-13
-1.4557287503e-13
3.29712704503e-13
9.19758603197e-10
-3.13458363901e-10
-4.47133871171e-12
-6.53282148992e-13
1.09740983934e-12
6.74798164672e-14
-9.15702334743e-10
9.23270016942e-10
-5.08612850076e-12
-9.22233214936e-10
9.24822983728e-10
1.63184089679e-14
-3.17187100656e-10
6.78587705112e-11
-5.7581751782e-11
5.74351877232e-11
-2.54678068611e-12
-2.02755270059e-11
2.91542395727e-11
2.43327489326e-11
6.8943703227e-11
-9.91924836893e-12
6.10212044798e-11
-5.23227993329e-11
-1.27399873256e-11
5.33909770518e-11
1.29398003399e-11
4.85024141603e-12
4.62649954712e-12
5.82475061986e-11
-5.60443527842e-11
3.36326447484e-12
-5.11776905988e-11
4.59999320552e-12
3.92934555086e-12
5.97900209017e-11
4.99301681229e-12
2.63605146665e-11
-3.48449952665e-11
9.28957969736e-13
1.87933676967e-10
1.13979078238e-10
2.50381599234e-13
-1.8836823576e-10
-4.67072401898e-13
-5.50848775277e-13
2.14139927758e-13
-2.32951116207e-13
-1.12758168679e-10
-8.6786744006e-13
-1.91455687477e-10
1.91702353289e-10
-4.00100157673e-11
-3.90054632635e-11
-2.6696004753e-10
-7.19596469659e-13
4.75197398396e-13
2.6157339279e-10
-3.40003510854e-13
-1.15693955002e-10
-2.69863520343e-10
1.90156223022e-10
-1.17532414049e-12
-3.96636714724e-13
-3.91672530437e-11
-8.84762892363e-13
-4.7189996683e-13
-2.73633025567e-10
-4.92218947409e-13
1.25485271753e-13
-1.91396002469e-10
-1.15173545707e-10
4.96669615484e-11
1.04221939022e-11
-4.69370438174e-11
-1.11678577893e-11
8.85025660168e-13
-3.17458440611e-12
-5.28212237265e-11
1.78846725106e-12
-3.44944293033e-12
2.72614806745e-12
-4.74595980228e-11
-2.04889737426e-12
1.91475876235e-10
7.42333658628e-13
-1.92310667253e-10
-1.09673011101e-12
-1.51562438172e-12
-4.26445001324e-14
-1.85626700674e-10
5.92126667462e-15
2.73362326188e-10
-2.72847181592e-10
-2.66119969565e-10
-3.87969904964e-13
-9.50352686284e-13
-1.71106545827e-12
-1.91650432202e-10
1.92569462317e-10
-1.13916329142e-12
-1.92544289581e-10
-2.66458518436e-10
-1.02963421859e-12
-2.38036641125e-12
-1.89667158879e-10
-1.9773603265e-10
-1.13841902936e-12
-1.18590997398e-12
-2.32481118055e-12
-2.63026322342e-10
-8.85516959321e-13
-3.46243787427e-10
-2.58857767983e-10
1.19400756858e-12
2.92612821113e-12
2.20860430207e-12
6.14636052729e-14
-1.91075126177e-10
-3.4330516149e-10
-1.92290866085e-10
-1.29720780294e-13
1.00876373628e-12
-4.17266649524e-12
-3.45504739572e-10
-2.82912727714e-12
4.14089684211e-10
-4.56939386494e-12
4.18637951721e-12
2.82382812462e-12
1.86187565817e-12
-4.24730716593e-10
-3.76280721179e-13
5.06779628788e-12
-4.17252773738e-10
3.05741674986e-12
4.79441843874e-12
3.55838895869e-12
-4.20355509712e-10
-6.04171996401e-11
5.90882706058e-11
8.66229206219e-13
4.08604470974e-11
-5.7069498853e-11
3.29081322698e-12
1.73155773767e-11
5.41672861272e-11
-5.68516152169e-11
5.32730306271e-11
-1.99069914145e-11
2.05600044426e-11
3.82395193456e-11
2.59058979832e-11
6.31024164227e-11
4.65766209639e-11
-5.51024912151e-11
1.58571452886e-11
-7.4892546587e-12
4.89712559739e-11
-5.25624838575e-11
-9.572649766e-13
4.38925444022e-11
2.08697576485e-11
5.4833382042e-11
-2.11044053508e-11
2.16211834597e-11
5.19343284219e-12
2.9942146658e-11
-6.10923297289e-11
6.75031750694e-12
3.11045908038e-11
4.62327724406e-12
6.24611556916e-12
-4.5787503236e-11
4.68632350825e-11
3.59504250317e-12
1.36120658098e-11
-4.47162318477e-11
3.25680353675e-12
4.6060307873e-12
4.84599919617e-11
3.19301147229e-12
2.29339551458e-11
1.4131566555e-12
3.143415851e-11
3.55673634589e-11
-3.084170112e-11
1.6123970461e-11
-2.77040054085e-11
3.00732871974e-11
-2.83282835203e-11
-1.65274044907e-12
3.97831168574e-11
4.88787458617e-11
2.44741678051e-12
-3.03052071642e-12
4.60856639818e-11
-4.80280634918e-11
-4.63532424157e-11
-8.15524250408e-13
-5.20554733829e-11
4.18854859337e-11
5.07013477734e-11
-4.08125661848e-11
-2.21231373793e-13
3.94479185098e-11
4.75408502571e-11
-3.87043157819e-11
5.08766474486e-11
-5.20893613973e-11
-4.99109670354e-11
-3.05785909304e-11
3.33150701645e-11
2.30698905564e-12
-4.08744785912e-11
1.27338433671e-12
-4.03086473235e-11
1.23017043124e-12
-4.72137832191e-11
7.05734818346e-11
-7.78509127548e-11
6.24298895314e-11
-1.87318098417e-13
-7.21244761767e-11
-6.11309781755e-11
6.43404229428e-11
-6.41542965857e-11
-6.06878255693e-11
-6.10038571952e-11
3.55260789095e-11
-3.79110627203e-11
3.90692433138e-11
-3.31198955328e-11
8.00916606496e-11
5.63985843061e-12
-7.32127767361e-13
-6.53938043965e-11
6.1597359088e-11
5.68577780672e-11
1.09743068318e-12
-6.84347436588e-11
-5.62346742154e-11
5.54105750848e-11
-1.48016645975e-12
-5.35287819224e-11
-7.36645219085e-11
-6.09215621891e-11
-3.90876168569e-11
-9.02417344941e-11
-4.24197282739e-11
1.56756741167e-11
-1.81971806654e-11
-2.63131873029e-13
-1.89098006448e-11
3.85283072958e-11
-2.41030258553e-11
2.55166728542e-12
-4.82831404886e-11
4.70753310924e-13
-7.11375073961e-13
2.18255054038e-11
4.89375240852e-11
-2.22392672375e-11
-6.22811420593e-13
5.06663904537e-11
3.20599263617e-11
-3.18692300233e-11
-5.89668200706e-13
2.97664802907e-11
-3.0541913742e-11
2.30107784214e-11
5.05254233124e-11
-2.29499067446e-11
4.37711376128e-11
-4.25888814773e-11
1.538643891e-12
-1.16975958686e-11
2.55107596024e-12
-3.68020427733e-12
5.70293263861e-11
-4.00399718251e-14
1.36655188469e-11
-5.65439144435e-11
-1.32258651574e-11
-4.36912705687e-12
-6.40049924267e-11
6.5244261623e-11
-1.33377186398e-12
-5.93717157488e-11
5.9526096869e-11
-4.63282185074e-12
5.82890178218e-11
-4.23644228898e-12
-5.96918545141e-11
-1.40509340636e-11
-4.10136171561e-11
-1.93760591583e-11
-2.66130884321e-11
-5.79310922206e-11
-3.25778023924e-13
-1.51943355422e-12
6.14476114087e-11
5.4040865492e-11
-2.81615725003e-12
7.90853756578e-11
-8.27971796611e-11
-5.29449511953e-11
-7.25202105031e-11
-6.0766118969e-11
1.57501816919e-12
-6.04561121165e-11
-8.10982689858e-11
-8.90783439009e-11
3.85708804169e-12
-6.80589270533e-11
-8.20332731144e-11
-9.06191748054e-11
-5.95228341601e-11
-5.94881185617e-11
5.01759374642e-11
-4.48473014488e-13
-5.05686885097e-11
-8.45581994964e-11
-4.09661393603e-13
-5.22372564226e-11
-8.21098538723e-11
-7.35908719891e-11
-5.05450904125e-11
-9.17510500937e-11
-2.82082113211e-12
-4.4448039574e-11
8.91337921454e-11
-9.91314554913e-11
5.00873983781e-11
5.31362904087e-12
1.07504956994e-10
-4.98655491602e-11
-1.08854055735e-10
9.90716678288e-11
-9.95263528706e-11
9.52862106665e-11
-4.38257217595e-11
-9.8968908467e-11
-4.42182880397e-12
8.57110576153e-11
-5.18578958302e-11
-9.74518466928e-11
4.82890255474e-12
5.84253607384e-11
-9.23602153715e-11
-5.70313090453e-11
5.87664528694e-11
6.11427615849e-12
-5.79654320092e-11
-5.07339048015e-11
7.20450952888e-12
-4.92245789841e-11
1.15173326529e-10
-1.17728341529e-10
-4.2968316557e-11
1.01432937872e-10
-1.04712223652e-10
-8.59732807358e-12
1.07911571981e-10
-1.1083263421e-10
1.22796292219e-10
-1.25974600699e-10
-9.85605496434e-11
-5.51198682662e-11
7.06009259597e-12
-5.75377810498e-11
-4.98087184234e-11
-7.34167673433e-12
1.0401530812e-10
-1.19157567137e-10
2.44280857031e-12
-3.79463729549e-12
1.10920192894e-10
2.6769305713e-10
2.26343889891e-12
2.62841156528e-10
3.61267935179e-11
-1.66191846062e-12
-1.2814239233e-12
-2.1894276856e-12
1.12410786065e-10
2.67097551626e-10
-2.30020709854e-12
-2.57240263287e-12
-2.61971142164e-12
1.80489946806e-12
-1.93816400595e-10
1.96141966092e-10
-1.29469723673e-12
-1.86096252157e-12
1.11705356998e-10
3.38156425278e-13
-6.07532565537e-13
1.92984305592e-10
-1.8429211066e-12
8.15756797528e-13
3.49902342909e-11
1.93776472281e-10
1.50006803832e-12
1.10432857635e-10
-1.47450943035e-12
-1.87733043462e-12
3.60713150737e-11
-1.15783737915e-12
-9.37942991666e-13
-2.70692450551e-10
2.61858901478e-10
2.23363986255e-12
-3.44103697197e-13
2.69922244341e-10
-4.5935123363e-12
1.86256788557e-10
2.73802168628e-12
1.88703524029e-10
-2.30803583497e-12
-1.13670520311e-12
1.07066318341e-13
1.95031263305e-10
-5.34206610151e-13
1.0246428228e-12
1.06883702417e-12
2.32968150404e-12
1.85818205757e-10
-1.94043205378e-10
1.3989270854e-12
1.07612059244e-12
2.58587312477e-10
1.93436300923e-10
1.02685327924e-12
1.850702685e-10
2.56892826927e-10
1.90985295743e-10
-2.87770348431e-12
-5.41811097376e-11
-5.25954367419e-11
4.9299933722e-11
5.42342441424e-11
-1.92286338503e-14
-4.30624044571e-11
-5.40449157472e-11
4.23580980855e-11
-5.24598341749e-11
5.1024654416e-11
-4.32693132098e-11
-5.38779045134e-11
4.19896143752e-11
-3.17513253478e-13
6.25132145721e-11
-6.30313459803e-11
-6.34599038333e-11
4.36162086463e-12
6.27248230274e-11
-6.35852946671e-11
6.06341509721e-11
1.37906857411e-12
-6.31548067304e-11
6.32689436131e-11
-3.01701803286e-12
-6.27168679135e-11
-6.27089670931e-11
5.34891627615e-11
2.49953838141e-12
-5.27128398862e-11
-2.41135030338e-11
2.40306532495e-11
-1.63600767742e-12
-5.34236887372e-11
-3.34170369874e-11
3.31371204182e-11
-3.37274733724e-11
3.31158805984e-11
-5.28010015401e-11
-2.37223133141e-11
2.37382019768e-11
6.65494023734e-11
4.73424021564e-12
-2.77196745579e-12
1.38371162278e-11
6.90284928174e-11
1.41296679808e-11
6.80016413229e-11
3.27126351454e-12
-5.95926565631e-11
1.44845117869e-11
6.08167906585e-11
6.03255765343e-11
-2.37902298399e-12
4.58834101662e-12
1.41906800612e-11
6.10538485298e-11
4.98092404116e-12
2.6641266676e-12
-5.18574528426e-11
1.45600405789e-11
5.20564874353e-11
-2.29249846531e-12
-5.13692447327e-11
4.71908734897e-12
1.42329621894e-11
-5.09094153973e-11
4.99719166735e-12
-6.94758040993e-11
3.35598280719e-11
-4.02357494086e-12
2.34255075463e-11
2.37571305184e-11
6.19072070182e-11
3.74664396716e-12
-3.65387186866e-12
-6.18839753075e-11
4.98881322839e-11
8.59059743219e-13
-1.34968892083e-11
-1.6676600836e-12
-5.08619981238e-11
-4.64773251643e-12
-4.37430952574e-12
-1.39250858466e-11
9.23022170137e-10
3.61171054458e-12
2.86918362242e-10
7.81811618337e-12
8.83918884458e-10
9.30114916797e-10
-9.28338546609e-10
6.62819088515e-12
8.84465058031e-10
9.34779044093e-10
2.48488642638e-12
2.85052750792e-10
4.87970776602e-11
3.56807296467e-11
1.27970458827e-11
6.49397717521e-10
3.98624152899e-11
-6.49041657405e-10
-5.61546503034e-14
-1.95465597786e-12
1.56603006623e-10
4.43101226791e-12
-1.55738890356e-10
1.50695548583e-10
-8.37147359605e-12
-1.54781835602e-10
1.22594599589e-11
3.08075910131e-11
1.14760664181e-11
3.81082561357e-11
6.37512233569e-10
5.6221047559e-12
3.76003478468e-11
-6.44360344394e-10
1.16968972832e-11
1.14373182045e-10
8.75771864913e-12
1.07795710936e-10
1.55078467162e-10
-1.61079717195e-11
-1.46695551842e-10
5.763293906e-12
1.56263200172e-10
1.24159652901e-11
1.41520065328e-10
1.4121644497e-11
1.04447427844e-11
2.11895361333e-11
-1.35727752204e-10
1.32198465753e-10
2.63284580394e-11
1.87431477213e-11
3.34493817399e-11
4.75765245324e-15
-4.25795643622e-11
2.86063201481e-13
4.25332899652e-11
-3.4527727841e-11
3.42831813836e-11
-3.21202165736e-10
-2.25234401659e-13
-1.79427038826e-13
-1.85876420273e-13
3.23465866825e-10
1.35810968373e-12
2.83891846983e-10
-1.30347324727e-13
1.57939299029e-14
4.08674057158e-11
-4.22610491957e-11
-4.10713674876e-11
-3.17812984825e-10
-1.75831134967e-12
-2.4176013601e-13
9.30887395397e-13
4.69143097137e-13
-3.16377851141e-10
-3.08642546605e-12
-2.30124562136e-13
3.5962901753e-12
-3.28549217747e-12
3.64658031546e-12
1.2507938326e-12
-4.27383496165e-11
-9.33941223265e-13
-2.58678994043e-10
2.5737887797e-10
4.37216130803e-11
-6.27163785984e-11
-6.1079572268e-12
4.1237052745e-12
6.56257444127e-11
7.02163930138e-12
-2.51107827867e-09
-1.27692542399e-12
-2.6968070283e-12
2.31322342633e-09
2.54279593241e-09
3.51496590021e-15
3.40780601286e-12
-3.33406796056e-12
-3.16598874424e-12
-3.99110002747e-11
-3.42341293827e-12
4.05443800022e-11
4.20946124367e-12
2.6518196949e-10
-2.66601397522e-10
-2.49981340569e-09
1.71366141884e-12
6.69126418428e-12
-2.49197231005e-09
-4.08501305492e-12
3.75715511578e-12
3.40455213002e-10
-4.01599733123e-11
-3.39878382025e-10
5.65509930995e-11
-2.95914029611e-11
-6.56192873353e-13
3.33416266838e-11
1.70728035757e-11
-1.31112143769e-11
1.72521875376e-11
3.44331471583e-11
-1.28046155395e-12
3.1674047926e-11
-3.48451665059e-11
2.66394586853e-12
-3.26455128931e-11
3.90676704694e-11
-5.86419436361e-12
1.44680943747e-12
5.03615638988e-13
-9.7258003396e-14
1.93559468011e-12
-1.45865574615e-12
-1.23455515804e-11
-3.77754576326e-12
-1.30920984055e-11
-3.24055193796e-12
-5.47118206073e-12
-1.56054031631e-11
-1.54693081987e-11
3.34680589969e-11
4.74491217864e-12
-4.39439473248e-12
3.02260396743e-12
-2.71539114462e-11
2.79122813829e-11
3.90132529524e-11
1.48520740626e-12
-1.85132784907e-12
-8.51067151957e-13
2.92968179766e-13
-1.22716349158e-12
-2.10456561617e-11
-3.11992338333e-11
-2.22715571894e-11
-2.97885701814e-11
1.0651081779e-10
-3.42376035174e-11
4.58288651335e-13
3.46159009379e-11
4.17926833237e-12
-4.70198827863e-13
-4.54565557642e-12
1.34335479969e-11
-8.89574224864e-12
2.05897040338e-11
-1.27310067863e-11
1.7678382751e-10
1.09537679064e-10
-1.0097536364e-12
7.57820297113e-12
4.45079117333e-12
2.24705870979e-12
-2.40809629782e-11
-3.39082043438e-11
-2.28742777621e-11
-4.14989086049e-11
-4.00119941981e-11
-5.00863927078e-11
-4.70248576412e-11
-5.66906039743e-12
5.9612043345e-11
-2.69643910848e-11
6.20148844559e-12
2.82164578804e-11
5.14411073717e-12
4.06449648948e-12
-3.56721805254e-11
3.64192290335e-11
-4.14855597233e-11
-2.53858413888e-10
-4.12654931045e-12
-3.22565603274e-12
-3.76331970678e-12
-4.98030618631e-12
3.91064793323e-12
2.63259720589e-10
4.42694363261e-11
-2.94064072878e-12
-2.83334510152e-12
-3.50280150573e-12
-1.12904644653e-12
1.3076932396e-12
1.83409661282e-10
-1.58220149264e-11
2.26578454948e-11
2.92132717017e-11
-3.51408291039e-12
-2.45720343543e-12
7.31610406658e-13
-5.25246583615e-12
-9.70590107377e-13
1.12220802936e-10
4.10169240694e-11
-4.08250173032e-11
2.63803552956e-13
-4.13109210042e-11
-6.91244281784e-11
-4.68199765567e-11
4.37141980161e-11
-3.75912637001e-12
3.22335647078e-11
-3.23556854705e-11
-4.25392478254e-13
3.27602382767e-11
-3.28954596965e-11
6.82734660774e-13
4.60172435284e-14
-8.10860040556e-14
5.71484526313e-12
-6.15287216448e-12
-5.39109870173e-12
4.23574859259e-13
-3.36919819088e-11
-5.1986094436e-12
-6.19313082961e-13
4.84872605877e-12
-5.56384892159e-12
-4.47757740201e-14
3.42187259531e-11
5.96453564722e-12
-3.91329653439e-14
-3.45355039394e-11
4.14788152402e-11
1.16583441572e-13
-4.23100881244e-13
-4.17443520247e-11
1.13375166559e-12
-3.21470015333e-11
-4.42075562423e-12
-3.10738709849e-12
4.22908226617e-12
4.5891962364e-12
6.97332465308e-11
-7.10233823106e-11
-7.7997881116e-13
4.34002320069e-11
1.04002083415e-12
-5.19352142021e-12
-4.40306015312e-11
-3.42556486102e-11
1.53258381581e-12
3.29604067556e-11
-1.50463827505e-12
-6.78571318647e-11
-7.80087704709e-11
-9.20768617379e-12
-4.58860402797e-11
-1.09725291845e-10
-4.12919737263e-11
2.38850120155e-12
4.16365842924e-11
-3.22987745266e-12
4.67009239963e-12
-4.55946514683e-12
7.79607402264e-11
-7.92622456508e-11
-5.87283804903e-12
1.88465614567e-13
5.40695407195e-12
3.51206856197e-13
1.02912344581e-10
-1.02986133075e-10
3.35040610293e-12
-4.55145721612e-12
-7.65507472033e-11
-3.45126207647e-11
-3.31959247068e-11
9.27899828479e-13
-1.10506327329e-10
-1.37543986508e-12
3.44245002273e-11
1.17283308648e-11
1.48323121214e-11
-7.33067806894e-09
-1.36234297779e-11
-3.13262005793e-10
3.15407859421e-10
7.21321148517e-13
5.02421582815e-12
2.12383051569e-12
-1.52175332216e-09
-3.20811228888e-10
3.20703284134e-10
-1.53249108264e-09
-6.56824872049e-12
4.00164216006e-11
5.46253278798e-13
4.96164023188e-10
-4.00558023439e-11
-4.90102647003e-10
-1.97078774714e-11
4.69834568534e-12
8.33002225661e-12
7.63551403279e-12
-2.13708786653e-09
1.19611624857e-10
-1.83442425024e-12
-1.20712732453e-10
8.71760393736e-13
-3.11321532545e-11
2.9918622947e-12
-4.22129641496e-12
1.14134973864e-10
-7.66756598729e-12
-1.11110811805e-10
5.07948366515e-12
-4.02639815727e-11
-2.14295002382e-09
-7.05087514498e-12
2.06031082263e-12
1.02073034808e-12
6.38676065314e-13
-9.18199715175e-10
-3.22395380002e-10
3.24792679912e-10
-3.19629050498e-10
-9.24284921767e-10
1.24153812946e-11
-1.31971426419e-11
8.78225567226e-13
1.32189469548e-11
-1.18686017371e-11
4.6021553161e-12
-3.54485218002e-12
-4.83425182535e-12
4.05043976618e-12
7.0326171406e-13
-1.06432603603e-11
4.00455606769e-12
1.14659962993e-11
-3.77689137422e-12
9.12076647613e-12
-6.95294879444e-12
-6.30340278164e-13
4.7459922795e-12
1.28775480418e-11
-1.78366720384e-11
-7.46619477637e-13
9.70413680598e-12
-8.94115185661e-12
6.03821601138e-11
-6.27729004956e-12
1.53854915548e-11
-5.89314882629e-11
-1.46854226665e-11
-1.35773617708e-11
6.66451878897e-12
-6.10631844698e-11
1.43350201619e-11
4.8071482292e-12
-5.33085591358e-11
-5.61563366561e-12
5.52876038249e-11
-6.79483512607e-12
-7.03152585923e-11
7.09598872432e-11
7.04825571684e-12
-6.34962453511e-12
6.09807780453e-11
-5.20851541114e-11
-1.30208467074e-11
-6.92293847896e-11
1.59838303547e-11
1.32891545205e-11
-1.3897675673e-11
1.53066324205e-11
-1.48430910607e-11
-3.68830459417e-14
8.98450660268e-12
-9.26177534625e-12
8.54309465408e-14
-4.63889906247e-12
-1.7732491221e-12
4.57279506579e-12
-2.08600145631e-12
-8.63243546104e-12
3.33995211926e-12
-6.76212156558e-13
-7.5768249455e-12
1.7865605914e-12
-1.27963915994e-11
-1.8865600076e-10
-1.39864967196e-12
-1.13060678957e-10
1.13654616613e-10
1.19702117855e-12
5.44869849401e-13
1.66902019377e-12
2.65704109595e-12
1.90602498582e-10
4.13497963188e-11
-1.92004645172e-10
3.91647611945e-11
2.59600372087e-10
-3.85328864733e-11
2.42453209519e-12
1.93037400838e-12
2.05125421771e-12
-2.65536332984e-10
1.15899139022e-10
6.76518862356e-13
-1.16831476483e-10
4.10148606644e-11
1.30547559135e-12
1.63140683755e-12
1.8177381918e-12
-1.93383658566e-10
1.16074505119e-10
-1.1633407089e-10
-3.86103831166e-13
9.94509686605e-13
1.4481384997e-12
-5.38501161218e-11
-1.13880542228e-11
5.22603617168e-11
1.17683792791e-11
-4.76416319585e-12
3.57535390083e-12
6.10122013961e-11
-3.34407699903e-12
-5.90975370451e-12
-6.30811592866e-11
3.92347467758e-12
-4.34518331035e-12
-5.64439049247e-11
-1.10030642633e-11
5.91185677916e-11
-5.55667667574e-12
-4.02193053836e-11
3.328469092e-10
2.94268439985e-12
1.04875276924e-12
-3.67351691687e-13
-3.34257298103e-10
-1.65724492905e-12
-1.17302858894e-10
1.60590932827e-12
4.17789581011e-10
-4.14514826223e-10
4.13637347088e-10
1.59607543911e-12
-4.96715500444e-12
-2.96662588036e-12
-4.28454332355e-11
-4.02879138847e-10
-1.20975106051e-10
-5.36260961342e-13
-3.62093793584e-12
-2.16643513955e-12
1.64604715008e-12
-6.47412966986e-12
-2.96637812369e-12
-4.79439408498e-12
-1.18551720999e-10
-1.16098909929e-10
1.05346291353e-11
-7.40018156332e-11
6.87104120149e-11
-4.45627726829e-12
-9.97328898504e-12
6.78850835286e-11
-3.15014487276e-12
-7.06277504466e-12
-6.98481890128e-11
6.50530149853e-11
-5.77689374741e-12
-7.42654330321e-12
-2.95858100553e-12
-7.66802702869e-11
-3.65636951992e-12
-2.79023205171e-11
4.59313550384e-11
-3.878574601e-11
6.47558424351e-11
3.91632909912e-11
-3.77475486222e-11
5.43101346253e-11
4.34539409687e-11
3.96902804468e-11
-4.62061002976e-11
-6.1567910925e-12
-1.90064692291e-11
3.48782680351e-11
4.46542003357e-11
-8.98302124433e-12
2.14589931489e-11
1.31565648707e-11
3.4553773508e-13
-2.02569413936e-11
1.80208813256e-12
-1.87623199637e-11
1.9613985958e-11
-5.02496772683e-12
-3.07874537865e-11
5.41373390858e-12
3.15699637232e-11
1.79628960164e-12
-1.10125138149e-11
-2.49064263713e-11
1.17499738084e-11
2.21310386821e-11
-2.90682890486e-11
1.35266579141e-11
-1.61395336777e-11
-1.28280524954e-11
-2.72651252316e-11
3.64029620548e-12
2.69343391911e-11
-2.35005940674e-12
-4.21608367916e-12
9.22858350145e-12
3.18970672029e-11
7.86070149617e-12
-5.0154453297e-12
-3.27897457378e-11
4.05591265688e-13
3.40122356408e-11
-1.2689531646e-11
-3.27453591164e-13
-2.25320490904e-11
-1.83507780178e-12
1.04381622051e-11
2.13448507102e-11
-1.98864744999e-11
9.58558226374e-12
-4.36656067647e-12
2.81493328644e-11
-3.69561344813e-11
3.57114778313e-11
-3.04453829412e-11
-5.3550355218e-12
-1.68011850955e-12
-1.54721259461e-11
1.6395651008e-11
-8.77089516366e-12
8.57988218857e-12
2.16358114328e-11
-2.89003541643e-12
-2.78043153247e-11
-3.79695317946e-12
-5.71924932947e-11
-6.15489857306e-12
2.35809512676e-11
-2.26791305731e-11
-2.07681778677e-11
7.64743306861e-12
2.15103147546e-11
3.28825772103e-12
5.02767244504e-11
-2.53117412766e-11
-3.10920814082e-11
6.76566739157e-11
3.19355349379e-11
-2.99545719501e-11
-1.99709888294e-11
2.44032076262e-11
5.03701846466e-11
-1.41476682063e-11
-5.10681802106e-12
-4.87417618146e-11
4.73986229503e-12
-4.43727486971e-11
4.5446657743e-11
5.83412183236e-12
-4.04988665098e-11
4.13096299739e-11
3.41644365882e-12
1.24426487845e-11
-3.38883211268e-11
5.10917427332e-11
-3.88324795896e-11
-4.30694351973e-11
-4.70454211446e-11
-2.19972799314e-11
-3.38794494825e-12
2.97030129723e-11
3.74549333505e-11
-1.80801138677e-12
4.01609063423e-11
-5.08043972026e-13
1.86212716988e-11
3.90796913415e-11
-3.80358985341e-11
2.01236868601e-12
4.18964881128e-11
1.72418306016e-12
-4.04497491565e-11
-1.4272134385e-12
5.77446978192e-13
-3.90765981383e-11
9.89016786779e-13
3.95760049959e-11
-3.99289358734e-11
-3.68069925168e-14
-4.14379032037e-11
-4.97412565766e-11
8.99255203697e-13
-3.85801370491e-11
-4.77857657011e-11
2.77953305208e-11
6.31908987108e-12
-4.8014686659e-11
-2.83082978231e-11
3.10798205323e-11
-5.51123897223e-13
-4.68311422823e-11
-3.31043835806e-11
3.43880012964e-11
-3.51569758946e-11
-4.18246820088e-11
-6.64053810471e-13
-5.88667305255e-11
4.01677655861e-11
-6.48842419939e-11
-6.29652945851e-11
-5.58622233862e-11
2.42762176528e-11
1.29011893204e-11
-2.17496015712e-11
-1.60097169308e-13
-5.67494068725e-12
-3.01869041726e-11
3.80054390803e-12
6.65812781131e-13
-1.55330175181e-13
-2.91071507704e-11
1.22542765843e-11
3.35581084805e-13
-2.29602564642e-11
-1.45264098278e-11
2.21488579704e-11
-1.30484475092e-13
2.84352943499e-12
-1.14491200218e-11
1.4749650929e-12
3.34879487112e-11
-5.56029382586e-12
3.41207503542e-13
-3.18866147635e-11
1.65654511434e-12
-2.78751319961e-11
3.00839821041e-11
-1.25090022169e-11
-1.02365499873e-12
2.09690702193e-11
-2.10102038854e-11
-4.73494109364e-13
2.8298160924e-11
-2.87383924329e-11
2.77991616063e-11
-2.7659607767e-11
-1.05384054135e-12
2.01283186963e-11
-2.43153617801e-13
-2.03752516054e-11
-1.31279037253e-12
-2.67259685694e-13
-2.32260505073e-11
4.17892675723e-11
4.04309788363e-11
3.83477028756e-13
-3.16637811696e-11
-3.26160888655e-13
-2.29901651792e-11
4.12407779809e-11
-3.71170045232e-11
1.74549903612e-12
-3.61353149695e-11
1.06952272467e-12
3.52925683327e-11
5.04062889381e-11
-1.86693441893e-11
1.92609482816e-11
-4.02847892658e-12
2.46581495296e-11
-5.58288304061e-11
9.88412692655e-14
-2.24592111192e-11
2.60936663243e-11
-2.44209197469e-12
-3.8265118657e-12
-1.79112835383e-11
-4.66244249495e-11
1.21706799734e-11
4.49889072103e-11
-3.63319699026e-12
-4.14448060076e-12
3.93842446537e-11
-1.07099753e-12
-4.34388770926e-11
-2.72644827359e-12
-4.93838219167e-11
3.765093008e-11
-2.31996514919e-12
4.36829358965e-11
1.97795963399e-11
-3.42214680788e-12
-2.69808875943e-11
-3.63550945927e-11
-1.91866275405e-12
-2.54564559651e-12
-2.42680586573e-12
5.73717959616e-11
-2.35402558344e-12
-2.19146927362e-11
2.22155378643e-11
-5.93470944327e-11
6.99502243881e-13
-5.9135623771e-11
3.2143693926e-11
3.0684738226e-11
-6.47090135123e-11
-3.22657637135e-11
2.30912400269e-11
1.63239426555e-12
-2.3276316633e-11
-6.83099398375e-11
3.04517210705e-11
2.28792816921e-11
-5.982955252e-11
-2.18643013412e-11
-6.69535225075e-11
-1.9257560354e-11
2.43641936315e-11
-4.84048649051e-11
7.77564666394e-12
-4.69806717077e-11
-5.07056283381e-11
-7.06940307784e-11
-4.82181758219e-12
-4.34131308355e-11
-9.22312692328e-11
-2.60676874018e-11
-1.06242311351e-10
4.22511561349e-11
-1.10175018398e-10
-3.64552447268e-11
-8.32814520026e-13
-1.00846365615e-10
-8.92006473089e-11
1.66922408215e-11
5.98257670274e-11
-1.48367806532e-11
4.42062092435e-13
-5.90676892958e-11
-2.07838270824e-11
4.5199646571e-12
-2.56965627305e-12
-2.34190206086e-11
1.15104745713e-11
1.29715578672e-11
-8.38961149295e-11
-1.12671369167e-12
-1.36608084208e-11
8.12558019065e-11
7.68513216369e-11
-4.00555760084e-12
4.0791215036e-12
-7.93175681847e-11
4.33357661558e-12
8.62675447193e-11
-4.70795710246e-12
-8.75099449794e-11
2.9216412893e-12
-1.42214207216e-11
7.63524188344e-11
1.39568535936e-11
7.39302471256e-11
1.30373799204e-11
-4.12410768569e-12
-8.68705315321e-11
-1.51189593122e-11
8.56710179266e-11
-7.84516335242e-11
-9.36714450389e-12
3.71421308578e-13
6.74789046938e-11
2.78468490598e-12
8.02321632781e-11
-4.31404861281e-12
-2.36099372921e-12
-8.82243288659e-11
-6.57023043224e-12
-8.30266578404e-11
6.12656163632e-12
6.60402314162e-11
-8.35156853415e-12
-9.03676582883e-11
2.76232402178e-12
-1.5502939891e-11
8.98188870452e-11
2.85116127854e-12
9.44211924661e-11
-9.4977281336e-11
4.57540505081e-12
9.62445672421e-11
-5.06565842153e-12
-9.9717155628e-11
1.6368901368e-11
-6.71959964459e-12
1.0485543989e-10
-1.65595520368e-11
-9.3635430077e-11
9.54668326634e-11
9.5318856602e-11
-1.51702672591e-11
5.2417236638e-11
-2.1328115776e-11
1.62223685834e-11
8.32879037479e-12
3.25600873886e-11
-1.21217972868e-11
2.19044187773e-11
2.67443530791e-12
8.08274677247e-11
-2.37084578111e-11
-7.14202152015e-11
-3.15710718495e-11
1.95069128982e-14
-2.40304128761e-11
-8.77962796832e-11
-5.61421286053e-12
-3.69543353896e-11
-2.56476744643e-11
-5.10896537649e-11
8.11254431644e-12
1.19252156847e-10
-4.50319033461e-11
2.82603430254e-11
-1.34737996389e-11
-2.69115604956e-11
1.76542812965e-11
-1.00480760517e-10
-3.31988763293e-11
-1.01397651456e-10
-4.94492744503e-12
-3.11075195113e-11
4.99654642003e-10
-4.36431411707e-11
-6.10845886056e-12
-6.29524240208e-12
-4.68366805535e-12
-4.78231449176e-10
-4.30323362622e-12
-1.10916881957e-10
-4.16402615762e-12
4.22656079884e-12
-5.11201374226e-13
-1.13739878377e-10
4.46038684121e-12
5.72460953523e-10
-5.68784705162e-10
5.72606440653e-10
-5.22345697202e-12
1.96596538468e-12
-7.7911145032e-12
-1.23613192319e-12
-5.61904109122e-10