/*--------------------------------*- C++ -*----------------------------------*\
| =========                 |                                                 |
| \\      /  F ield         | OpenFOAM: The Open Source CFD Toolbox           |
|  \\    /   O peration     | Version:  2406                                  |
|   \\  /    A nd           | Website:  www.openfoam.com                      |
|    \\/     M anipulation  |                                                 |
\*---------------------------------------------------------------------------*/
FoamFile
{
    version     2.0;
    format      ascii;
    arch        "LSB;label=32;scalar=64";
    class       volScalarField;
    location    "0.01";
    object      nut;
}
// * * * * * * * * * * * * * * * * * * * * * * * * * * * * * * * * * * * * * //

dimensions      [0 2 -1 0 0 0 0];

internalField   nonuniform List<scalar> 
29767
(
8.0230205421e-21
4.12579656713e-23
3.77258687435e-25
6.27566179824e-16
1.48927374279e-22
1.16769481495e-25
3.21247257416e-20
2.37413569504e-22
1.2711747958e-12
7.57712589726e-10
3.12621382286e-15
2.44044327829e-09
2.00308412898e-15
3.46385945274e-09
2.50349691785e-09
1.52359379287e-09
2.19842627639e-15
1.19943536588e-13
2.56604392586e-09
1.07832166466e-12
1.66634970784e-09
2.94513220622e-09
4.33318309227e-16
3.29124963066e-09
2.65209971889e-15
5.51725703348e-26
2.16741094002e-24
9.9130645635e-23
2.00437554316e-19
1.85374703617e-20
3.24629646393e-18
7.28649581363e-20
2.3499968188e-19
2.4772809298e-10
7.49965236868e-24
6.13241583033e-21
2.67414211076e-19
5.96408851799e-21
4.64168589912e-17
2.42783724916e-22
1.95450098513e-12
9.86320259137e-24
2.03949721034e-23
2.59965656685e-24
6.92463946209e-22
3.94472047976e-21
1.97279815662e-23
3.28685162513e-09
1.36102665477e-11
4.60551598867e-16
5.47965362389e-10
2.41490548656e-10
3.48317011587e-10
4.06938146434e-10
1.0536599761e-12
6.22736623438e-27
3.12508361376e-22
1.40812261232e-21
1.93083480716e-20
2.77840463478e-24
2.24234926876e-18
6.36935526785e-22
9.74173567857e-11
1.24691007981e-10
2.00184846785e-10
5.09588482034e-11
1.90493866305e-18
1.60029800645e-14
8.66525207004e-18
1.43396904435e-20
1.31176821865e-16
5.23572809426e-22
1.96974954225e-17
2.27164068318e-15
1.22907482764e-20
4.38948825076e-15
1.99580417551e-15
3.74850467712e-20
2.07929037238e-15
2.52664869805e-22
2.28743776789e-09
1.65389900704e-09
1.94104164486e-13
6.93632445289e-11
2.60744994133e-15
7.64547270692e-12
2.05219823305e-09
1.03033569963e-11
8.19733776135e-10
8.96318118844e-10
1.21144228003e-09
6.16426614812e-10
7.61564544649e-10
4.89787693402e-10
1.16376796966e-09
1.73524400918e-09
2.11175424772e-12
1.4163174527e-13
2.97016963449e-12
3.17643173717e-17
8.85727759018e-23
4.64110776382e-19
1.9129431113e-21
1.63468880774e-11
1.7843078372e-12
2.58081515553e-12
6.73719433703e-12
1.39596190106e-11
6.51597494412e-10
2.17126218817e-11
1.81258874422e-11
2.68566673092e-13
1.42150275231e-20
3.19075429376e-14
2.31686526221e-13
5.79709707621e-12
1.0557109571e-11
1.46826086844e-11
1.90535104845e-12
3.49571169906e-11
3.90685404643e-13
1.15631150386e-11
6.67025078336e-12
1.72912500991e-19
8.86595332845e-25
1.35876044623e-22
7.0677198664e-23
1.63229257436e-10
2.9472005117e-10
2.32488041887e-14
1.55675684637e-14
1.83202568184e-19
1.70632267361e-13
2.4179757894e-19
2.30775873292e-14
7.80551497421e-11
3.48144704607e-11
9.16300903883e-18
1.25366416611e-23
1.21961055222e-20
1.02825671774e-22
1.0740636241e-09
7.10976723815e-10
1.58173526296e-11
7.39428563728e-10
8.89794593683e-10
5.0510979081e-11
8.87831802405e-10
1.25832512578e-09
9.88695617969e-12
1.11076590778e-09
7.34516496068e-12
1.45329504928e-09
1.29907375634e-12
3.07264964294e-12
1.77841649126e-09
1.25872220995e-09
3.66871163275e-10
1.33885035223e-09
4.98226049662e-11
1.16636612287e-10
1.09523860172e-09
1.52384035343e-09
7.15429164975e-15
2.07519167917e-09
2.47728189113e-09
6.95709725396e-14
1.51390710752e-09
4.45497087456e-13
1.81786547733e-09
2.19365735731e-09
8.31176737539e-13
5.03608925189e-13
1.71375937152e-09
2.44332860021e-24
4.92632509735e-23
5.7495388623e-23
2.09194816199e-21
5.75084758039e-25
2.40348404823e-23
9.49771458894e-23
6.30371399348e-24
1.2632758336e-22
9.03648623855e-23
4.9346327038e-19
1.22431260685e-23
5.38024534144e-23
4.84942076244e-20
3.29188064848e-14
1.37455568746e-14
2.28373973008e-15
9.30757342057e-12
3.89045781769e-15
1.69189273839e-23
5.27687295375e-21
7.44775471813e-17
3.22897999794e-13
2.15469823201e-17
2.82394690087e-19
1.52614638065e-11
2.12542073861e-12
1.02957781875e-15
6.66913412179e-12
2.88427252092e-16
4.97501813239e-13
2.76965709844e-17
2.88405370934e-13
2.35105343498e-13
1.12000274447e-18
5.71695251689e-19
1.44008430094e-13
7.38738151387e-13
6.16518789916e-19
5.57333886806e-18
8.06523557742e-13
8.46929733405e-14
1.50148891407e-17
5.4423825592e-14
1.36644779989e-12
6.6637447632e-17
4.58572844084e-13
2.22924823949e-18
3.5347566638e-16
6.76490755529e-18
8.06851514443e-14
1.89218460434e-20
9.46613647229e-24
4.06735686508e-26
2.03108138652e-23
2.71373077232e-23
3.21463548786e-10
9.57395940618e-27
2.93810587932e-27
2.36217794218e-21
3.91138797168e-17
5.30111268761e-30
2.08688355034e-25
1.361645105e-24
6.55369265632e-09
7.53704790408e-26
6.42204545199e-09
1.57593075482e-19
4.84461096141e-09
5.58904041672e-09
4.28471127652e-09
2.51283368895e-22
1.2385757101e-22
5.07980209686e-21
8.86492314688e-22
3.1580159271e-10
2.4200636983e-24
3.3816394323e-09
1.93178579067e-22
7.74073941902e-11
3.1921258756e-26
1.16755291154e-20
6.61378504341e-30
1.04772214875e-09
9.20246649259e-12
1.34090571767e-17
2.3563724564e-19
1.09672299058e-09
2.48977297915e-19
2.32154449987e-20
4.39968588149e-11
4.13339372034e-17
1.65848253538e-09
1.45719804735e-09
3.43776793724e-21
7.79971790577e-18
2.17461751063e-10
6.62450375995e-18
1.86724927611e-25
1.09818343203e-12
1.37236335484e-24
3.41317775277e-18
1.94501822208e-17
3.07311494943e-16
4.9867355349e-26
3.18980427505e-25
1.91534434142e-16
2.70285127066e-13
6.61093519025e-13
1.57772528685e-12
1.01659764631e-12
4.544232771e-19
1.46982195896e-25
5.47105106088e-13
7.91408760637e-17
8.36584641722e-21
2.44580084585e-24
8.72469663114e-24
1.83095040945e-23
8.63830195369e-24
4.83607252507e-20
7.47288548534e-25
5.28311617273e-17
2.09492231266e-24
7.53077997858e-25
4.15509017988e-21
6.82972446163e-21
1.28296500231e-14
1.10510371774e-13
5.22002447641e-10
9.42443649511e-11
1.21609207423e-13
2.21450986922e-14
2.91859610432e-10
9.03408449509e-15
2.61919984595e-09
2.54305610992e-09
1.17740937925e-16
6.04162606478e-16
2.05306037766e-09
8.24350677767e-16
9.31774034883e-10
1.97494378611e-13
2.82043880933e-12
1.32842305284e-11
3.0521252763e-12
5.67908566927e-11
8.07666063105e-22
4.30909692335e-21
1.6660219579e-19
3.25867216356e-24
4.30074317031e-18
3.78145076218e-24
1.08752829686e-19
1.81805118937e-10
2.92973938469e-10
2.55627909388e-10
2.28562576963e-10
8.48434843576e-23
7.28693264989e-24
8.30969725292e-25
1.72448295053e-25
1.70314591681e-18
4.63553659194e-21
4.75615774937e-22
3.9276130569e-10
3.81120859563e-10
3.07408191601e-10
5.07949091316e-10
6.66000017642e-10
1.17801166063e-14
1.40410367663e-13
8.53589341601e-11
2.30598355839e-10
1.21755538108e-12
3.52182168608e-14
8.0220976495e-10
3.41741089513e-14
7.93262958493e-10
1.73068778098e-14
2.08375623972e-14
5.11370547844e-10
4.04488800793e-15
3.76226709196e-12
9.76832408301e-10
1.45500361901e-09
2.04245569122e-13
2.84150311002e-11
4.8749334184e-13
6.64996884795e-11
4.38975749553e-10
6.51826092642e-12
1.70038273893e-11
4.38651430797e-12
1.54699187688e-10
3.38472597015e-13
2.12152731303e-09
1.19719177488e-09
4.03631994013e-12
1.74932475015e-12
1.65245720706e-09
2.10739234549e-14
7.54976637776e-13
1.94710947601e-09
1.78428535006e-12
1.13446091097e-09
7.87559454569e-13
7.64700506156e-13
1.58013224009e-09
3.73345758425e-12
1.4237672164e-11
7.81571193601e-10
7.11829275049e-10
1.27240903206e-11
4.25590020563e-11
1.18964562053e-09
7.26227369258e-10
1.09139992067e-09
2.26840799432e-09
1.525037268e-09
3.20134757628e-22
5.36238455155e-23
8.6438016205e-20
3.09135482748e-11
5.5835850746e-11
4.52377701962e-11
4.47789700104e-11
5.10929260637e-13
9.12363556481e-13
1.44852079685e-13
6.72674173591e-10
6.42563341019e-10
8.54208007726e-10
4.12059975811e-10
5.44575237956e-10
1.35904550286e-12
4.92972198277e-10
6.13926731284e-11
3.53185875641e-10
3.91030595794e-10
1.31188880775e-10
2.31230630192e-10
2.23549467592e-10
2.83765326343e-24
8.32550972969e-23
3.27376225206e-19
4.37521859791e-10
2.56788237085e-10
7.37691276806e-11
1.38401225463e-10
1.34766391487e-10
1.03215217925e-10
9.3202173796e-11
1.7163530025e-10
1.77816006218e-10
4.10419474173e-10
2.86623219852e-10
2.41508279192e-10
1.1723578328e-10
8.44673409638e-11
7.71413028723e-11
1.42444983134e-10
1.49152683595e-12
3.55842300074e-15
5.34944601793e-12
2.95460277413e-14
8.2999726589e-14
1.15859805807e-13
3.44975568867e-12
1.53146106439e-11
4.91908347331e-12
5.37329819835e-11
1.04428518384e-11
1.0195317199e-10
2.18775725161e-09
3.06232830342e-12
1.66949367139e-09
2.59128893614e-10
1.26998920371e-10
2.20195959207e-10
7.91266739309e-11
5.73227161217e-14
2.08029389182e-14
1.6232975402e-20
4.96020696721e-16
2.11968843821e-12
2.78978563759e-14
7.8356185537e-19
4.01823966922e-10
7.181221185e-10
6.26068501289e-10
4.22958422703e-10
1.13630401794e-15
5.19053995692e-24
6.02757279083e-20
2.29435157313e-23
2.43191759372e-14
3.6450255952e-21
4.01780820871e-16
1.24543188466e-10
6.77330079984e-12
5.04523472162e-11
6.58235710904e-13
1.13712561935e-11
2.49447720522e-15
2.29050640683e-13
6.55823134559e-12
2.94175815946e-16
9.86251993799e-13
1.05705560577e-14
1.01805719457e-20
2.54372833539e-09
8.88495212624e-15
2.61518387834e-18
8.52584772232e-13
1.87134100075e-14
6.63883814148e-27
4.22569574553e-21
7.71328578667e-27
1.08403891553e-29
5.84921578548e-27
4.52122205103e-27
3.98523118732e-23
2.83812538443e-21
2.89835817306e-09
3.77946890244e-19
3.46523328061e-09
8.79458122268e-20
1.1510930911e-20
3.22566727775e-09
7.49294408118e-10
2.30370624203e-10
1.70717375936e-11
3.30893769478e-10
2.91320965464e-21
3.07488193974e-22
1.90161678177e-17
9.99263899461e-16
7.93292284831e-24
5.63272511996e-19
5.25041191775e-21
1.33045559551e-11
2.51321667767e-09
4.58369121327e-14
2.82521733639e-09
3.30397012043e-24
4.6716947543e-21
3.50507055808e-15
3.05099296938e-11
1.26554088185e-10
5.05871366773e-09
7.62813659991e-22
4.91000941635e-25
5.13494491611e-26
1.03545908581e-20
5.899999071e-09
2.91101557351e-18
4.61812313987e-09
5.88355591141e-19
1.11102527827e-19
4.25810154447e-09
7.54402145062e-21
5.14265103832e-09
3.83418028406e-09
4.62527893736e-15
3.775319628e-09
3.31346951109e-09
1.0859424275e-21
1.24372606542e-22
6.15584315763e-23
1.94421740194e-22
4.99844012664e-24
1.25156164131e-22
4.39746772668e-23
2.09172677628e-23
3.56505061753e-22
2.87074523393e-21
2.09722969592e-21
9.82524480649e-22
1.06465513948e-21
6.66761327393e-21
3.10062054475e-24
2.93784861823e-20
8.70187661208e-21
2.57752529686e-19
4.93937681512e-20
3.25325493853e-20
6.41501541957e-13
3.58953085795e-22
2.11149663773e-17
2.06153443127e-13
9.56583646357e-18
1.57792565618e-20
2.74159289187e-21
5.14461242291e-16
1.52672927118e-22
1.54840873411e-16
1.88831999711e-15
2.66741479158e-16
5.36833656526e-22
1.22037772602e-18
2.11685098e-19
3.65122943762e-20
7.04853939507e-18
2.19072243662e-17
5.97317727364e-14
9.32021033862e-16
2.91604519e-16
1.53929027388e-15
2.14157380939e-17
3.43213679091e-15
3.5027191522e-14
4.88209353142e-15
4.50198136756e-22
3.49342404804e-18
2.38325758636e-15
1.5306613949e-17
5.95778231818e-16
1.38281316841e-16
1.45815448652e-13
1.36407051915e-15
9.91202778638e-16
2.15390929976e-13
2.26636316715e-17
5.12655870773e-13
2.19821819213e-15
2.48131398785e-14
6.0488422893e-19
1.37440004658e-18
1.02784898391e-17
6.63152150248e-16
2.30696313477e-16
6.23888952896e-16
5.2874424664e-12
3.87879093287e-14
7.15307437238e-15
6.68098259089e-15
8.44879521708e-13
2.25159011953e-14
5.71842827009e-13
2.17284613687e-12
1.54149573197e-15
3.8362960694e-12
3.13150859779e-13
1.64561568737e-12
3.53237051124e-14
3.07141964125e-13
2.3796709245e-15
2.75388394531e-16
5.81629852896e-22
4.28733724609e-21
1.04670534742e-13
9.50080343352e-18
1.54746597739e-16
4.18563055997e-17
6.99240921333e-12
1.82406856338e-12
3.21529343154e-17
2.68562000479e-16
9.42854964767e-15
8.95284982928e-22
8.8568395771e-16
1.2607534005e-17
2.01203844352e-18
1.41396939045e-23
5.59559578715e-23
6.13005948718e-23
1.87119884476e-22
4.59906531673e-22
4.39338885227e-22
4.12625423784e-09
1.99146208426e-16
8.30706139057e-15
3.20577368679e-09
5.40075167743e-17
1.23820745061e-16
1.2719206146e-11
4.42046649859e-12
5.94951808658e-10
3.92621905205e-10
7.22746689451e-32
2.82623409211e-20
2.34091591879e-16
1.91598942696e-13
2.85624841744e-15
1.19493281771e-15
3.0391077155e-14
2.56700606597e-13
5.09321592493e-16
7.85667495274e-14
1.93112015571e-30
1.61127900556e-19
1.17141673395e-17
1.38036023631e-17
1.1872392569e-19
4.63252152575e-27
4.12171851881e-23
3.77348637588e-19
1.90964541824e-22
1.22828728619e-24
1.16420814051e-21
6.22632363437e-21
2.34753555448e-20
5.00141022048e-23
5.62785901463e-22
3.75380056223e-19
7.45609613897e-21
5.16542970178e-24
1.18455218078e-22
7.86738647724e-23
1.43005178411e-23
2.17632005319e-22
1.16140562071e-24
2.60562242594e-24
9.91674612523e-29
1.0042838852e-27
1.22958615637e-24
1.24332473398e-25
5.17686550291e-28
3.54515705517e-27
4.9936946297e-20
3.22789843019e-19
5.18056427842e-14
1.54748435878e-24
2.96020585768e-17
4.45228705366e-13
8.02448069202e-15
9.7454719293e-20
1.23300913531e-19
1.86824370065e-21
3.16952919058e-20
4.57162634381e-18
4.78473341631e-21
9.08743616458e-21
9.38342355441e-24
4.97750837176e-23
7.30975992807e-23
1.57847704526e-22
1.59739082652e-20
1.20298018402e-20
3.19290942109e-21
9.0389305373e-20
7.38268779492e-18
3.58742884889e-18
3.39079547518e-17
6.0509714327e-18
1.06571003952e-18
5.97395622455e-19
6.63788321387e-18
2.10101640472e-22
2.05938037693e-21
2.7681352674e-21
1.03693630739e-20
2.83779275382e-18
9.47470595431e-20
1.87904649419e-19
8.73205849526e-14
7.42174240532e-09
2.69244282631e-10
7.63795195078e-09
3.06064046519e-13
8.90577873411e-10
3.22585286027e-13
2.31451677953e-16
9.67126416989e-20
3.51327340835e-25
6.10439830959e-20
7.70977723283e-06
4.1221051625e-05
6.88672735628e-21
2.6436787451e-19
2.13096593668e-19
1.41982188084e-18
4.25272282604e-21
3.11595951775e-21
2.46130253693e-15
1.21360687122e-16
2.58849039435e-15
2.58090369764e-15
7.06219809125e-20
6.43668755691e-20
1.42499346692e-22
6.69023240317e-25
1.78270762976e-20
2.25243544609e-22
1.72411405719e-11
4.74308591678e-08
6.54561278376e-14
7.62816537608e-23
7.95561885937e-22
8.83227330197e-21
4.75740769424e-19
5.55600061955e-19
3.98204696723e-19
7.2174329957e-20
1.35972666279e-16
1.46740529661e-18
8.02691391144e-20
5.11557740557e-15
1.28157589568e-14
4.67480741674e-15
1.67290274785e-14
1.00378184776e-19
1.58228378532e-23
3.42722414264e-20
4.11891399287e-24
6.56367085141e-22
2.88985143117e-22
4.3806729748e-21
1.13299525834e-25
4.94595742158e-23
1.52598837238e-20
1.51931377739e-22
1.45415646038e-21
6.22346784985e-20
4.07125226588e-20
1.35985822659e-17
7.3719579301e-17
1.29011238699e-16
3.06415064952e-17
2.85608584357e-22
3.89979595858e-22
5.87271651368e-21
4.07439864268e-18
3.98333984846e-17
5.50690878862e-20
2.37766361929e-18
1.59011462637e-23
2.64681598798e-20
6.3268269917e-22
1.71938853134e-23
4.03627012562e-27
5.16295714932e-21
7.52393844358e-25
5.26993915019e-25
3.89353304223e-23
9.09294931811e-25
1.18798624492e-24
2.26108216661e-22
1.38217334194e-22
2.90188574747e-21
3.86825792653e-26
3.71862313635e-23
7.44256041817e-20
2.29192922697e-20
8.29704249215e-23
1.47575540282e-21
3.97903084351e-24
2.51450826512e-25
5.31624622663e-26
3.58602117318e-17
1.66581225907e-21
8.07139519899e-27
8.13377087275e-23
6.79353865931e-25
1.26096931917e-27
3.76093562827e-23
1.95295383184e-24
7.05054642069e-21
6.65375494873e-21
1.37765332659e-25
1.50568549916e-24
5.13868041311e-18
6.95588191095e-25
9.18747274844e-22
1.45077391244e-18
5.72048058547e-22
2.73071368182e-22
1.71221940233e-23
1.10743009211e-24
3.44043530743e-18
2.74302712757e-25
9.13750042502e-23
1.29122130088e-19
3.66263498796e-20
3.36065278063e-21
2.35605104177e-21
4.49276866733e-24
7.62895900936e-21
2.88331454564e-21
9.47512775712e-26
1.79341704692e-21
5.35184539244e-16
1.39499153713e-27
1.95243923318e-22
6.95326060998e-22
6.29261407029e-25
1.46664714876e-20
3.24641292037e-23
1.77768480896e-26
3.43844569887e-22
1.5759993774e-25
1.39113609837e-26
4.31149052415e-29
1.20547693295e-23
7.24186993767e-32
2.36343151494e-27
5.40457327092e-24
2.58652884154e-24
5.2378833768e-22
4.38084539981e-23
2.95529421717e-25
1.59945192638e-24
1.75292081022e-27
4.38329473783e-23
3.07588242006e-22
1.41551682578e-23
6.5685102871e-23
1.75077785209e-19
4.63826506863e-25
5.74078792921e-21
6.05131260867e-21
8.19287903128e-22
6.57425104092e-24
1.41775307878e-24
1.64822567248e-15
3.85912373369e-23
7.15873096222e-22
6.50325996581e-20
2.04579218002e-20
2.20763227444e-22
7.93425243128e-23
4.27402204536e-20
1.66559011044e-20
3.83390040379e-23
3.91587541201e-11
4.33919304393e-11
1.07369669947e-22
1.21530713903e-22
2.43421786615e-22
6.14712426982e-23
1.81706021296e-17
1.47334538513e-22
1.52947247997e-16
2.30664269985e-20
2.00044785568e-19
4.56748997019e-28
2.45530711309e-18
7.1115203454e-17
1.68241823969e-24
1.09461861273e-24
1.5385076668e-22
3.62544334361e-22
6.29121328079e-22
3.63862983819e-22
1.46506880529e-22
8.74889863682e-23
4.05571188192e-24
9.32869589146e-24
1.22094278549e-21
2.3822812998e-23
9.27313333809e-22
1.00245377039e-21
7.36711329261e-22
2.59731987131e-21
3.39903415438e-21
2.85946118562e-20
1.66805210359e-20
2.56357085964e-21
9.66741348476e-20
3.00030314568e-17
1.19690168123e-17
3.8034861168e-17
1.1520245596e-17
2.81947902315e-21
2.09745932169e-22
3.47723250228e-23
3.73667655662e-21
4.42519122974e-10
8.27776682122e-20
3.11496281491e-17
1.16193155854e-22
1.76334284294e-22
3.66966639612e-23
1.31122876539e-24
8.56290558064e-22
2.20033992118e-24
3.31534787035e-22
1.03411832434e-23
1.52069412895e-22
4.73163766474e-21
1.28069512449e-21
2.74633586666e-20
8.45593704571e-22
6.18571304725e-20
2.26777698561e-20
7.24991594624e-23
5.89314822374e-23
5.72085346132e-24
7.20644400488e-23
1.05484859521e-21
6.54444691078e-21
2.79110718959e-22
7.21366911578e-21
1.18596841959e-20
1.25570648341e-21
8.37564372496e-21
2.66758235178e-20
6.26274999244e-20
3.27845985087e-20
1.1707293433e-25
6.19349915859e-23
2.27295332429e-20
7.17180957233e-22
5.9300947086e-30
1.81522897741e-23
2.4716153395e-21
1.64429310385e-26
2.19434978031e-22
5.4652216107e-24
2.98882616877e-26
2.17391509258e-14
9.23708066224e-28
3.34981851952e-15
1.22402730319e-28
1.18696256206e-21
4.0609553078e-23
4.31495103038e-22
6.81345967e-22
3.67202801232e-23
1.30400615452e-22
9.02822857115e-21
2.62968677018e-22
2.37141239605e-21
4.48377430469e-25
4.99497032509e-25
8.61687165353e-22
2.75236835551e-24
8.11720951442e-22
1.20538840183e-21
5.86720518485e-24
2.428585532e-22
8.18832347105e-22
1.38540521248e-24
7.72776949102e-22
1.42749561769e-22
1.48220042922e-27
4.34109217308e-22
5.65418141044e-25
3.18949730923e-24
8.80153514665e-23
1.38484925692e-25
9.66401119027e-09
7.19185669666e-10
3.62600224687e-09
1.2424206053e-17
8.43116497644e-23
1.03506786712e-21
8.1325445209e-26
1.21608076957e-20
8.64970067918e-24
5.9632843102e-24
9.81246007691e-24
9.18633155439e-21
7.52946661251e-21
1.05128252361e-21
4.67933485151e-21
7.57198998908e-24
5.28934017293e-23
7.78995067516e-19
9.19764262512e-24
2.10362493628e-22
3.98417163609e-24
2.02501186725e-21
5.90542060734e-24
1.35249150568e-24
2.17848364713e-08
2.1205906515e-09
1.81712827807e-09
4.14611043423e-21
3.59347611144e-20
5.13234689784e-21
8.48950722108e-20
3.52890999786e-19
7.14632400172e-20
3.99566616493e-19
1.80450014876e-19
1.18485852263e-19
4.21123726689e-23
1.18707774414e-24
1.62982352832e-22
2.74257007485e-20
1.00500934019e-20
2.13980368623e-22
1.84233854112e-19
3.74800522247e-22
1.39149318292e-25
2.85210813806e-24
9.10621174383e-23
2.25845993619e-23
6.01749232802e-21
2.61679465211e-23
4.65042158785e-23
7.28899470726e-24
1.09214446112e-21
2.67390670441e-24
7.69601484165e-26
2.76959139149e-13
4.6002698066e-11
1.6641445782e-22
1.21406885533e-10
5.10169589937e-11
2.47952030234e-25
1.7683284711e-21
2.22867989461e-22
3.88225836917e-19
1.08365372157e-21
1.0537900474e-22
4.48230889606e-22
4.1250081633e-10
1.53156106353e-17
6.82004703551e-24
6.24438611606e-24
1.24346184845e-24
9.55970543188e-24
2.80754886978e-24
1.03947306224e-19
4.23616624084e-23
1.3550905813e-18
8.7844556487e-15
6.97963187223e-21
7.7872382177e-09
3.96120825048e-10
4.78514285867e-09
2.37048795577e-21
5.16995598651e-18
1.20956007841e-20
1.87131749688e-27
2.46148690953e-27
1.67261616765e-21
1.43276079727e-22
5.18013401793e-19
5.17683642586e-20
3.26732886472e-18
2.75032548876e-24
8.55850340439e-17
6.2431435986e-09
1.516028737e-22
4.71049353004e-25
2.92475454177e-23
4.42878803844e-19
3.18938609165e-19
3.07468203304e-18
8.61173490148e-21
2.43218506362e-23
3.51146063106e-17
7.07218821378e-10
6.13453977794e-09
2.29384520409e-27
1.11289662637e-23
8.50463779508e-25
3.11418341414e-25
2.28198353657e-21
1.69399247668e-24
9.67834247294e-23
3.15695506309e-19
5.56011492019e-21
1.56710215852e-23
3.61929435001e-21
1.51478849148e-25
2.68877564763e-24
1.56218254471e-23
1.87184090241e-23
2.09401324531e-17
1.53616565388e-24
1.50606633788e-20
2.77368238245e-20
1.17946421551e-23
9.85249323819e-24
3.30325964605e-19
8.87548178311e-27
4.04067299002e-20
1.8762173919e-18
7.30179689598e-22
2.05465573077e-26
4.49207632137e-24
3.10476545753e-21
9.38658850965e-27
1.19462892536e-23
7.51676804703e-20
2.5801188587e-23
4.52479341134e-24
1.01119342916e-26
2.22194189659e-22
2.19403134676e-24
5.9001509685e-25
1.35673693951e-18
3.09459848425e-20
7.50529679436e-09
3.39804164478e-22
5.52585850483e-18
4.54103431913e-22
2.16260447014e-19
1.85785341778e-23
6.80824832416e-20
4.62716155151e-16
2.99862083789e-21
9.93894519283e-24
1.05404237401e-20
2.46484870701e-24
1.22469114585e-10
4.72127641632e-25
1.90441146878e-16
2.44816742849e-15
1.887800895e-24
8.23563197266e-19
1.27356668939e-19
4.4408239365e-09
9.9897633323e-20
1.94143656851e-10
2.35086362239e-20
1.64072263631e-24
6.11169928846e-23
1.00373920577e-09
8.4977787917e-09
1.08179215464e-08
1.32509771481e-09
3.42776480867e-21
1.61377221086e-20
1.35490678367e-23
8.84370543632e-26
1.09180262801e-08
5.65073563072e-10
5.11310361987e-21
8.64896627273e-27
3.54394429815e-09
1.32900674787e-31
1.40612487605e-24
1.26207084782e-21
6.40762010361e-23
4.08671900924e-10
7.9538010555e-26
2.34573241298e-22
3.06995652992e-30
1.42494861199e-22
2.40057252677e-22
3.25017857728e-22
4.32030003589e-23
6.28143598428e-25
1.01231557708e-30
8.80250640904e-11
9.80045960769e-27
3.67383581671e-10
5.16739422539e-27
5.14212423932e-19
1.44824809761e-23
5.00664854154e-10
1.70880002939e-23
1.36507188749e-25
9.97852687874e-22
1.04965149734e-10
2.03406093356e-10
3.33746136725e-25
1.76499879225e-23
2.12961849548e-09
3.36451257563e-24
2.62509061883e-10
1.0981867517e-11
4.10764292527e-23
1.45104168128e-25
2.0764315462e-16
1.55019336069e-19
4.83861708256e-10
2.31515507065e-10
1.47231437255e-09
1.24717213318e-24
3.25191515884e-10
8.79820964938e-24
1.40718722663e-22
1.03841067676e-10
2.6693781155e-09
2.26787038868e-11
9.18353916294e-23
8.35432767109e-22
2.76986408116e-16
5.23882705018e-23
2.56884111658e-17
2.00328927237e-09
1.86919178143e-24
7.18644231784e-10
1.62707241559e-23
6.90514123525e-22
1.03625834358e-14
2.09056172596e-09
3.0749419759e-24
1.73103841507e-21
2.59572664758e-09
2.85016899875e-17
6.08518565351e-24
1.18356350224e-18
4.25658225294e-10
1.20409094716e-20
1.43808076825e-20
4.18336901835e-10
2.42323507622e-14
3.22969937648e-20
2.23339445669e-25
1.06445609539e-19
2.47598412564e-18
2.78616877238e-22
6.13757294515e-26
2.68051831557e-20
1.66473130833e-17
2.50862671857e-26
4.08412035061e-10
5.46587615676e-12
2.70137079798e-21
1.57754771641e-21
6.66110939792e-27
1.58376387034e-08
1.32742404292e-08
2.5849439876e-19
2.21985802417e-25
1.1304346331e-22
3.69231219217e-09
9.11178234936e-09
2.97597355672e-09
2.81727534464e-09
1.9635854558e-08
2.34109574444e-20
9.19589238143e-22
6.97225330413e-26
1.05383889717e-08
7.06071550767e-18
5.64718625488e-26
5.09870491693e-10
7.51707073296e-26
1.03738660641e-08
5.11493271364e-25
1.00205607093e-08
1.19546936311e-08
1.94867696461e-26
7.44650991691e-21
2.00313439648e-22
2.49664926e-08
1.61500413122e-08
1.21085227819e-23
4.56786769889e-17
7.41866500771e-15
1.05661576135e-21
1.77717241709e-21
1.58936597597e-08
1.02277023881e-21
1.7690933887e-22
1.73151089569e-08
2.26229367973e-10
2.5506771337e-08
3.02269797626e-22
1.93936534012e-21
1.52345584107e-13
1.80274490637e-13
1.37823950668e-21
8.32719749169e-20
4.66922743544e-16
2.34522222192e-20
4.62096416471e-21
2.36517225155e-08
2.73536197869e-08
1.65623389309e-24
3.78344698548e-15
5.75742456723e-18
1.51217762117e-09
7.50913227435e-19
1.98915439764e-11
1.35115401808e-08
5.44147923782e-19
4.18787135969e-19
4.26559315526e-22
4.78063318351e-23
1.16961931985e-24
3.1860497603e-23
1.3273791465e-23
3.32950377689e-20
5.75838712108e-19
3.49656674763e-21
4.34494227142e-21
1.33570750478e-09
1.76890706519e-20
1.73930011158e-17
1.13024037757e-23
8.27005933951e-21
1.52054366697e-13
2.99777789838e-23
8.81069860035e-23
8.68038914142e-18
1.47707938483e-24
7.86937754159e-21
2.05934609517e-16
2.26568668143e-22
3.02881832967e-22
1.43695274224e-23
4.06916678488e-23
4.70131903895e-21
2.10725852265e-23
2.89212186434e-19
5.96388342123e-24
1.45105277607e-22
3.87149468171e-14
8.18331817406e-27
1.19935643632e-16
3.75909511778e-18
1.81555021064e-20
8.51015043936e-15
1.00618593479e-16
6.52118465668e-13
2.9398559662e-24
8.91888983274e-21
5.740037212e-23
2.12172694961e-10
4.63215801887e-11
4.94520433671e-15
8.31554790145e-29
9.7735298934e-25
2.84829316948e-14
4.75183292962e-21
2.32744125818e-10
2.16448467311e-12
1.00860072558e-10
1.10048099079e-19
4.86165977232e-20
2.31405998714e-10
3.24982724599e-20
6.10261208482e-11
5.30122058408e-15
3.56311350497e-25
5.92937502825e-27
2.07235094179e-17
8.47946275005e-23
1.45425961357e-14
4.0862449899e-20
9.77303796451e-26
1.26190179733e-22
3.5029084388e-28
1.12210930433e-18
1.12577833326e-14
9.5960516647e-22
1.94256688861e-12
1.07902894347e-24
3.2763844034e-21
1.30607613375e-22
1.47533008285e-23
2.45348547257e-21
2.04596891546e-21
4.84993861205e-22
5.44831401843e-20
1.86486849897e-20
5.20872831728e-21
1.18113940569e-21
4.33403226302e-20
3.70295283786e-22
1.62484504095e-25
6.0417504224e-24
2.10149586901e-24
1.94654912728e-23
2.48209086306e-19
1.0355983325e-23
1.41089347998e-23
2.98367669395e-21
9.52595680962e-25
2.69667716757e-21
1.57892250365e-22
1.7096718787e-21
4.92328132758e-21
3.92029707536e-21
2.221500656e-24
1.25940734681e-20
1.57162294805e-23
3.319092588e-22
2.38774831415e-19
1.45597474944e-21
1.84642408025e-23
4.23940318909e-25
1.10863464531e-17
4.01099117907e-22
3.93643116957e-25
1.27744509852e-22
3.27535331193e-16
3.3609602686e-26
8.04869834264e-25
4.16009694287e-18
1.61009321376e-22
1.84973287354e-19
5.91656685761e-11
2.39752189638e-12
6.78753490953e-11
1.04471830893e-10
2.51658049284e-11
2.80423474775e-24
9.97961466514e-18
1.71695935093e-11
1.58919293718e-18
1.16572609325e-11
1.17890004739e-23
1.34170899884e-11
6.82908940609e-15
1.99384180528e-11
3.61878571875e-17
2.91733192761e-18
1.17652763303e-17
2.21124357978e-19
1.19907173857e-17
4.76509333409e-18
2.03016336485e-18
2.58338817379e-10
2.90340966144e-15
9.09946851227e-21
3.70133075562e-23
1.85555201276e-12
3.80348335389e-17
7.44402467276e-20
9.5599473884e-20
7.86048378998e-20
8.36292271321e-20
2.29171526443e-20
2.79140806874e-22
1.72644731207e-23
1.182328215e-20
5.71265022075e-21
1.0160979437e-24
8.71865858661e-22
4.30378520269e-19
4.89170839321e-17
1.33343024431e-17
4.61845568269e-22
8.30864325419e-22
6.62542850311e-25
8.25916205538e-24
1.23844245294e-19
1.19159298871e-20
1.43348838408e-20
1.2881750002e-22
1.5701699934e-24
8.47686456943e-22
3.12722970692e-26
2.70500518606e-26
5.24425241001e-27
9.36021026801e-25
3.91383391022e-20
1.46749184233e-23
3.27095486555e-20
1.68850523309e-21
6.84081104964e-22
4.70762841851e-22
6.05324010902e-21
9.91985126688e-23
8.3967108046e-22
1.38598114531e-19
1.09479590341e-20
1.36416890447e-20
3.54918330769e-23
5.08862473117e-22
1.29564919753e-25
1.00852731229e-22
8.26356960482e-24
1.83411273939e-21
9.36582618269e-24
3.29992360736e-21
3.35920834103e-20
1.55984194186e-22
2.27260213099e-22
5.59837872011e-22
1.47430331607e-22
2.97505907675e-22
2.91527860974e-26
2.22888211711e-24
9.2183742085e-26
1.83329611098e-23
2.5928197048e-25
9.96214314107e-27
3.31631436496e-25
9.79777542383e-21
3.57694037501e-24
2.37925433947e-23
2.79721974886e-22
1.55045421531e-24
1.26468643013e-22
8.97151104101e-25
1.24214637894e-21
9.91437995389e-23
8.82653440567e-21
4.29738632444e-23
1.63587553387e-20
3.30404815918e-23
5.8984988106e-24
1.88891087455e-24
1.28361288206e-23
3.83158734376e-20
2.12792154718e-20
4.73232090474e-23
2.27752763446e-25
1.56502987189e-22
1.84764257662e-26
1.04271288531e-26
7.70923711047e-26
6.93204328316e-24
4.5371461181e-23
5.83247013793e-27
8.28101582801e-24
1.8520838692e-24
2.4391152482e-25
2.23024904383e-23
2.83282170083e-20
1.27064149441e-35
2.39009167789e-25
3.37675564279e-23
9.61211805609e-30
6.35214189734e-27
1.35411823059e-20
1.69234170413e-20
1.83588041863e-24
6.90332829706e-25
4.89912598265e-18
9.92375390814e-26
2.49144476304e-24
6.49909004001e-18
3.12421662129e-19
3.80466518464e-18
1.6383358123e-09
1.69382801809e-19
2.31415201713e-09
2.37260380896e-20
2.54110084255e-09
4.49916780207e-12
7.41422698888e-24
9.44078185195e-25
4.35206240017e-26
7.72924232536e-25
3.09225066657e-16
4.58568300294e-22
1.14352725348e-23
4.12102372244e-26
7.65264080552e-23
1.12594471883e-23
8.57444558061e-24
7.46526221385e-21
4.10083962004e-19
2.40549961878e-23
1.70640001825e-23
1.31811384816e-27
6.40398164243e-35
2.86374911947e-08
1.30015882629e-27
5.37888095848e-16
1.56847802396e-19
4.7121856626e-19
1.73353741925e-24
9.00297928208e-22
2.7916327713e-13
4.78133583551e-19
2.13636638699e-20
1.02152713333e-24
1.8050560981e-24