/*--------------------------------*- C++ -*----------------------------------*\
| =========                 |                                                 |
| \\      /  F ield         | OpenFOAM: The Open Source CFD Toolbox           |
|  \\    /   O peration     | Version:  2406                                  |
|   \\  /    A nd           | Website:  www.openfoam.com                      |
|    \\/     M anipulation  |                                                 |
\*---------------------------------------------------------------------------*/
FoamFile
{
    version     2.0;
    format      ascii;
    arch        "LSB;label=32;scalar=64";
    class       volScalarField;
    location    "0.01";
    object      omega;
}
// * * * * * * * * * * * * * * * * * * * * * * * * * * * * * * * * * * * * * //

dimensions      [0 0 -1 0 0 0 0];

internalField   nonuniform List<scalar> 
29767
(
257622415.51
24237743.76
2650701052.9
51642421.7663
1.00552159014e+12
131826956985
19246920.571
7779438263.2
15856.9624992
337025.407424
10982264.3562
201220.561914
125838027.31
171358.927084
162538.259525
217925.108369
1016645.52771
13844.3689042
177600.094966
10607.248797
198187.358114
149961.298062
26582194.6701
157113.4616
3513841.88916
18124948573.8
461379972.545
10087697.8415
347373.20396
32294083.4166
12517270.1545
4756996.05184
814829.761732
9641.58309404
133339513.732
163067.872054
73141487.9215
2525914.05713
5993855.42404
22542295.0576
255468.525236
101386947.164
49031692.4647
384666195.047
1444118.50678
253503.386395
50689422.871
86243.839539
1606687.52909
142825790.614
144177.86812
162370.812444
149472.527816
153110.325455
1766243.29433
743774544049
3199914.3818
7565043.67265
2996499.48858
87221168481.6
487233.805972
1570017.62023
169536.550195
177564.511807
156367.647548
200263.829874
4723307.67863
23469.7624088
456857.106348
14404679.1361
519010.689115
1909954.03504
1309659.78699
1907205.2163
4714127103.63
228178.052665
1915169.39359
3089230.27688
751212.326016
468281559.764
107894.290724
123090.899322
3035719.88571
702375.217089
10999365.3689
868770.604369
96254.0041566
1765488.28538
138330.640451
141390.192306
129726.529785
146967.610198
133730.62071
140361.95521
124141.950085
114640.43341
702875.386128
1755074.33264
332992.590637
3366035.32558
346063356.534
35478663.6961
33183072.5526
337320.988808
1605006.05113
193034.361922
29182.5363716
1e-15
96637.6070333
218613.682486
198913.373124
72625.8963976
31749840.4161
3030131.10713
1e-15
31410.1642828
1e-15
1e-15
179938.633824
196809.065824
709208.813797
219000.507324
334896.151831
25683008502.2
108449139077
519228268423
966529250032
152259.41079
145910.057513
7101959.90462
938077.457736
34840888.0904
1376486.27127
70251007.7923
767300.901655
161377.921513
174573.388505
2417007048.1
10077238486.4
48117368032.6
90679356402.6
125142.322071
130402.389437
68112.675945
3687.38015368
115157.501698
51375.4729495
139236.780393
108803.776641
33994.8917113
86954.471671
111706.711814
123885.602734
79888.9096863
102667.54396
130361.716593
135118.24327
9431.95710081
151824.901251
8789.41566268
13105.4714727
145431.861548
142224.708883
3047990.14938
139019.149694
144795.551871
2164404.90754
160977.34144
253401.608308
148058.552902
153973.083731
261119.908386
463688.580068
174082.395411
409277736.901
46708294.3643
536236872.017
58661938.5413
1738874115.55
41606267.3991
10528848.7102
158636638.819
7915927.57024
47433068.8319
1129109.37711
81678485.9035
18586513.0034
112745637.041
934975.828551
232732.09126
924762.30611
118366.629735
1860125.66755
183327907.749
28987830.2256
56475718.5819
593562.387067
2389512.7619
5584089.10017
65720.6823876
556944.572101
977600.56558
184065.383743
4784035.4438
227449.227623
1658083.92991
815296.449726
793403.014964
4811428.59301
4755659.28432
687037.597848
280509.45386
28220454.9519
1729634.30307
615724.188858
1536081.16407
3888430.68998
1059514.48106
311771.742478
2016106.64019
585699.205708
25071113.2595
429749347.021
285936785.609
5709358.50114
11154818226.3
105639719.322
24585991177.3
49234856.202
36849639.2568
332581.930033
3.31698835904e+12
6.01337297158e+19
2.2757012336e+13
39382914796.5
1.28701836805e+18
24986624422.3
1.04505132778e+13
96266.437551
5.82450165842e+18
123756.066919
499701780998
145791.502153
135568.783376
154795.320821
5930278.54732
8073789.85269
874874.305579
1128041.36419
199698.459666
760908878.507
125200.642851
5176557.38453
333588.075331
63530542361.5
85649.22327
1.63034679672e+14
196312.663948
1608397.15693
1383290.70348
48852463.7516
153910.108905
25570205.0659
24417495.5677
712673.415569
224571.907677
161474.154399
147984.989477
1.12458665558e+12
17110137.3834
335130.857153
22712717.8014
123222306866
15608.2572574
7.50077352856e+13
2220875.31622
184719503.121
541179.544938
3.44750778444e+15
7.16428828226e+12
551185.165722
12143.3222231
11843.7131038
32008.2027186
91324.1252524
32931697.706
18474750985.9
26326.7576313
8839371.45951
119533.631163
408864033.92
114617165.763
54616443.7245
115763492.103
3244844554.96
2093005224.63
2848654.07679
477344669.994
1327883702.41
240668.663424
146418.791214
4799605.78187
2779805.17328
177088.169169
336669.022021
2528962.95823
5115827.31336
218402.697027
304899884.934
139343.481249
135140.243825
45426624574.7
4814779550.56
145503.572454
3183457348.65
87015.0694454
1125316.90469
1602787.90062
704608.993943
233794.832734
37980.4681205
35344873.9613
232067.186649
3593493.1569
2771819781.06
374688.338665
264448769.24
169008041.863
144385.935084
141297.352593
134394.516051
149800.258073
806085785.634
834773634582
1203413276.76
5798839586.63
60382691.28
211859315.419
146036377.852
170138.469558
146899.094922
156825.097514
153202.67873
218167.270385
12244912.5078
876144.695287
120289.732742
339018.575474
224865.270429
2151448.93236
162422.928932
1341899.51
174537.045412
1480307.34163
1275653.93095
199018.205609
1610941.58311
1764274.93884
108964.470235
90187.4623928
701138.622623
705575.154699
430301.377819
73355.2338569
219803.621775
1759671.47037
53433.4364798
266627.635924
333576.191625
1529540.18727
148574.130826
176671.458739
151257.465997
143019.920654
155688.891843
18539131.0519
1470698.64736
142148.659144
451117.960398
161005.351304
2256392.62303
889818.136546
151836.913612
305365.625805
53187.4331876
199887.32746
196703.111049
56346.4083404
23083.6918017
168986.564312
126321.915106
120776.558192
86386.3612834
107120.447036
523095340810
11712743181.8
49356568512.7
334264.437635
200467.934904
162926.048446
177796.712961
1e-15
182318.493082
201495.645951
115136.742269
123796.332426
96810.8415696
130300.786613
108768.556521
1763187.92268
96674.9782256
103442.213289
123631.923444
124907.897409
144765.753259
138954.805423
134714.051948
6.05060991898e+13
2.90455586348e+13
574402037887
135348.396975
142358.444881
154294.317268
148278.206596
153236.869371
197769.817033
170046.692856
162632.364957
138463.06952
114625.862264
124478.932625
129869.559223
147034.826384
149938.39099
156787.047705
141505.816468
242686.804569
114533.895321
119532.99739
108747.258873
1829140.85363
24869.6154152
82730.0678386
705977.05113
1765094.0029
111361.972596
67125.8849724
133605.383972
114974.497242
129808.279603
96779.6339324
200726.836866
219221.692017
177996.994231
338368.134913
936851.637362
841392.146508
33722179.5846
1017220.07283
184482.818062
339564.565075
14731293.1658
197819.264257
178258.752536
162736.109288
219182.523336
13202454.7191
1998749646.24
1160353353.5
1992563352.28
10635.7821339
206407596.303
2805185.06246
334603.139072
1605514.71896
705109.871895
181547.571727
96684.868679
954359.07638
356927.122486
129626.586585
2165258.89505
207744.517254
593063.153977
1017523194.06
86676.0096804
8034429.15064
9542925.81422
650721.108763
312485.926416
1.5056047828e+14
7911332403.14
129646434432
9.22476108261e+13
1.56696374432e+15
1.36297113314e+12
79872926563.2
10542949593.8
108579.858781
616631061.761
96717.4350414
20231235421.9
13755936619.2
123780.163665
201217.345356
338607.212447
1607368.43496
335316.374543
38518066827.7
72734638.1973
18156953.6662
129999961.213
23925670871.1
15298882915.3
439394215961
1763599.58043
124974.171938
408760.61253
134954.951387
2.92070283604e+16
2.15065637518e+12
153517084.07
1764006.38551
705683.695505
86741.5344877
1.71115679881e+15
5.60230655648e+17
4.87006255664e+16
905893528898
108676.640774
14325694444.4
115079.289099
207647434754
65557142878.9
139467.133789
94003392680
125410.72664
130415.764002
33887985.3
147825.606047
141891.829791
6609991.9737
22010350.6229
16244728.3726
5143457.71723
200062414.406
7990017.96627
22740360.1835
47807391.0675
2805009.26153
348341.604188
365005668.328
54908038.6728
939271.284118
149978.70436
693203513.762
43369495.3236
114917.740687
11255799.0808
11317743.9593
22553641.3791
147623.346289
77824235.7778
3334041.02672
541263.441002
18032021.4713
69521443.4285
87819730.8079
2546582.55235
883940529.988
5777425.88544
4797591.44432
1114807995.62
1.2338843475e+12
487383601.017
507386087426
22512903443.9
32535748883.8
11591771031.2
2441495.19726
4245598.3024
4587251.29172
2297674.4531
5487989.39027
6584139.0622
1589625.11541
15520391.87
33656888774.1
45855843.2534
26525497.7955
285719332.616
4716943.90788
1294074634.12
3265697.05365
2580348.28184
1963723.94924
1781831.65452
136903104.759
765387.090951
248933161.338
8885712.61497
69637668.177
8300022133.98
5257366.50985
86657568.6639
395843950.631
524361.314171
64874.7825946
890578.337075
177358.651461
102571.147827
317446.772855
154385.371403
201980.502647
251055.984129
972246.210578
215117.127272
7515.75960724
132594.143519
12715141.0188
14469.6215785
378561.399727
2167855.9214
1246465626.1
13039754232.4
130612.267253
1162664.79679
1029970.19331
453864.484465
128658.480842
180825.244002
7395327.60126
36098762.371
441458.572821
829982951387
377845666.048
18089409234.9
618091.509891
70722888.8232
958866196.706
70024706.5733
107673413.086
2174354.85502
97449296.7722
108851.225086
63825.211224
7674.87890455
123845.681439
38842631826.7
4772870474.79
161369.301631
92122.999122
86399.0987081
108081.684181
3.05370010209e+22
2.54793561803e+13
496447.992985
172673.909874
361398.538414
197331.737106
1722692.6533
267140.157067
184932.139332
478575.710427
3.15268452146e+23
6.09842087929e+13
47148764.5095
5466423.91327
25735.5767346
215865159922
24261724.7014
10672.1685725
5236574.23755
814141782.012
858952.935649
160608.419787
42597.8638786
19994360.7086
7574678.31783
53983.6036858
134118.442327
193594736.108
8442008.85556
12710701.3605
69927537.6678
4594912.40057
861025624.615
383785459.492
1.00839528145e+13
995734388196
813281765.427
8042951070.36
1.931670814e+12
282074950260
2307862.35812
15291978.2173
718639.17243
27115260740.5
2162036.55435
229037.055846
1056508.59371
10261.1757261
12504.1634678
535262.075098
104859.769128
11958.8156621
208998.05966
159344.910914
106570911.374
20090373.0403
13680339.8448
6335220.41391
62602.0873164
83126.8888121
313193.977065
16007.5479884
547776.634643
2562851.2332
848152.123554
558086.950238
11366.8250071
9830.86019975
13564.6761767
4759601.10427
485582.950679
361254.022438
96437.9386534
22253.2287459
14098.4502654
30249.7625336
16406.4509044
9489.43974563
13814.1174835
11867.8557255
22823.9992612
19678.4340896
11796.6622489
15707.1292355
14389.4840938
2846348358.84
1735212.7236
7755.63599789
3627.87860481
145206.852002
3782.6078598
5984.23800084
12534.5088322
235143.469468
953286.375416
13755.0202751
53622.7422131
13958.7190184
6041.74331962
14159.8973447
15535.9412921
7017576.03254
1494716386.12
56094.4477549
4439638.88837
12314.6488866
10786.9693742
13837.2962477
13109312.0128
1256973.23826
113221.134108
53653.6186644
43133.0418514
60838.9568754
383165.380726
14849.4794673
15029.0267188
142352.379021
15316.8497103
14801.3010049
14075.7183678
12999.3026606
9962.32400723
63199788.1338
29178.1324589
242782442.588
1523537.70114
3460385.50361
228275.428399
8826162268.89
20218532.3237
65531.298803
6581918.85626
687683.909707
16068.2118736
24562.4671402
24151.887465
6557.78273787
3263.4897019
13476.6491563
3501295.32084
2564236.72064
170278.949728
27441.9736193
5481.85528546
312339.018181
42417.7103975
62888547.9962
37781.2437488
1580571.11616
58160211.1316
247753487472
193687.449088
1329091150.2
1897555116.86
25683614.0635
1099753187.9
841760587.949
6089533.94873
7234982.54274
344603.505108
25851430256
26891673.7011
13436.2362388
43631.3647138
12052487.3887
677619.067557
251317478.886
4.83495583415e+14
6.60177700722e+12
836483466.038
955143396.422
1.43640450409e+15
697726141.449
324029098310
5.0799517349e+15
8028835400.09
512044874.639
6985982.09172
60010756.6448
344824502611
664149319.732
4529530.79347
1437632226.66
47351907.6094
13123700.5363
41647741.3831
3662046.32385
58403730.1901
99849694776.1
2284209.53282
9028539083.27
33624842366.3
60931008.0374
142115354.146
13521409.9444
166667780762
222579899.845
123941710.279
346823.069135
10553947404.5
37268066.5967
11519260.3261
716850226962
530933969331
1438174.19782
1589164675.97
2084860.01328
30803228.8106
1.6139740348e+12
2908290.80223
3.12078556259e+12
4.48146618688e+12
2.16469707253e+14
3951147653.95
1.38085882321e+16
423113592959
109437272276
557022988.688
113118789.741
22826644.3742
190825163574
625214164.619
570476426643
22813889.0905
3251099.5657
70645574.944
81347877.2895
557167464.647
2155978550.61
5798367141.04
65356208.5802
916143668.049
78272649106.6
142677158909
14964577.2348
25912618.2265
1396895.63035
15752.4294985
48880.8203378
4529739.90088
51653537.6989
23660.1849567
1073245.35492
26083098.0119
422172.40159
422704.301439
19852978.1484
8228372.63015
4108095.72104
16267769.3846
425496381.867
75553898.0375
13713633.5339
57574781.1601
3581556.63905
7.17233176534e+12
18556163611.3
6806393396.81
594382524.159
913560201.123
6499805.11362
2758283.34695
1589518.51633
2748287.25227
6825617.99412
426079079443
246565838.283
239500868.222
26579135.9447
169228442.788
1078384.14864
997552.235865
1357383.76794
385012.262466
21264201.9876
4198024.82164
106569.14171
390080.889023
10344.0284371
12716.814838
29317.487035
10566.109559
28319.9332708
354675.453086
4767672.9158
1280008172.83
267617.489726
104246.584044
5428736.54189
7864001330.7
791029706.446
6515839410.02
27250433.4742
762643427.599
1167827.89508
2948409173.61
54321153.7718
96700733.0267
6575944.3728
211343.317231
780825.959962
36412.1523569
1182601.04657
16166.2849919
44096.0467605
13793263.3622
16968858.7837
174799093.66
13876469.4393
1027095.57704
152801.30065
3582807.58163
138625.709601
84319.277266
796364.447591
119393.808146
37487.1275982
16442.2643434
30502.1273856
3.69923963074e+15
28170961.2442
1618528792.64
98871135.9649
1.68631370853e+14
55089468.736
404593.701948
60816407832.4
4557158.61241
182975196.841
33457951166.6
7237828.50752
8.92482560558e+18
13765127.0295
2.91758995004e+15
4556548544.56
24624747.7306
2317523.40399
40643321532.3
1025153535.84
1219239001.83
18478906.6667
3802734.26987
421689.623308
2230263907.25
2002013895.81
1160513.97794
363323462.137
1483029.28733
829608.115097
170438900.378
4117623.14658
1221251.21649
721810478.98
19647754.454
7005275.4461
674672588324
2303567.7662
1768602610.01
26121636447.1
11361654.3403
7221002538.75
394785.383589
562724.804715
422719.19402
246210.489526
11860757.1171
966120.224353
12296274523.1
82231.3801044
115610936.966
167692826.299
101911242.661
452909.921143
132811.532538
951219.084822
213705.586741
132065679.094
1105852707.74
535767.13263
108723511.095
4753699.116
250993202.939
493824.266502
3709400124.07
739376177.815
416851.25708
143360.549627
468172.098956
236513934270
27828.2078129
194842.636304
11779.2467096
17440.8020839
54682.4955502
14803.3989859
29110.7367681
8439.8261978
23745990.4684
842404808.728
6135633.59849
53313.0785218
99501.5628225
4673325.90571
3929646643.09
2668085.93009
30293398931.6
350617841.818
10981514.9058
44277960.5684
166182.18113
38214691.3665
21503426.7562
137193130.214
915629.786719
373984626.446
4.48018082585e+13
2709583.45553
78633.9936041
1.90065633144e+13
338752.382171
422172.442952
125659415587
469239380.631
4486961.10383
524556455819
43947715140.3
12049270922.6
3572440787.65
204105.001895
3021016571.2
146626554.743
160143844.633
1735807863.58
104605733.631
17516677378.8
300682043.789
23606250.1599
238139560.704
11705793.0586
73371653124.9
104337.4791
219754.033539
133261.668672
959493880.8
17156194711.2
5.80097756154e+13
534382862165
7.42626990243e+13
147803594.723
2443476513.35
545044159.404
5.72793942305e+12
226967558788
363593328.894
1867876229.23
122984.488807
38366334.9069
11526719252.6
56059903.0306
161925008.32
1983192384.74
3.54576718532e+12
59915240.9661
12804572131.5
76493350.3351
180865.791854
119301.208789
435949208001
89855605.301
1175829028.93
3211114655.16
2018351.60985
2.07957456186e+12
10332347.7424
6555266.72758
6796936.22174
63812049.1739
2266010.32131
6601581710.09
371916489.53
64013005.6112
105000797.658
300448.989731
6870217178.55
472349593.249
11195060750.4
84784259.3996
371784140.881
46387606711.6
1.6304356827e+14
809817445.415
11465673.6844
542724913794
86920477708.1
1.09344244816e+13
48212211385.1
106534977961
83708001.6037
6904033614.38
38757904.3744
221004565.091
7.43949613187e+16
1.31610199231e+13
534375374679
8.24120375063e+14
771937.139831
12754660.7239
422732.743152
8.19875848812e+12
65705836.6704
11563320.8296
5912477552.05
13833193411.8
44465020.2987
652183707.064
66287081963.2
9.11668756651e+13
448303654969
4.06471434058e+15
1163543.6051
1.36255422484e+14
51120291.6499
66024274.0086
2.60760065913e+16
2465917428.29
9394109959.89
445648.265518
786325547219
1129999.10259
14406199682.9
2784595471.19
1.40820252021e+12
422710.035542
422736.209643
483140.652478
422711.157903
4944618523.27
1983159647.93
417377862.017
11307477473.1
562803.158119
422708.503484
237947688.417
3.16395480418e+13
425196.301189
7.52441627258e+15
2.62547148902e+15
26972230.7057
17060043.66
468169.470063
12572605135.9
812346831.474
3.25737511348e+14
79967528.2345
13809105194.8
8410072200.83
1560801063.72
1591992662.99
9.8783425114e+14
1160471.38806
102036030965
468169.31033
193521135873
6509953.62603
69048942.7638
422709.865256
58520598.2445
13697846367.6
1002151.933
562686.086235
422708.827067
2996289364.76
56657262.5655
422714.761118
297219872.871
468168.554271
1188483.04325
24344861.9608
6891600792.04
6019583602.09
934316.663402
422709.80657
422708.925241
441895.451102
801813938.428
483099.738282
113659487.538
38056874.3087
1188494.92245
422716.646279
559351.324226
10889048.1356
1196984.41259
3672568352.71
60025845.8062
71560191.0108
422714.319902
8217647326.02
562755.732623
1967883995.34
7591355.89451
12105268.2735
422714.624708
325209388.612
2485475340.43
416798.677238
321920845726
164333523.567
2820246.58974
441891.438677
35847687.8691
831167.132479
422709.577722
32677.6589248
1360107583.17
7657152481.95
25464472.2104
49668448.8697
8776096.48806
16293085376.5
124647413.274
69672051027
39862447154.7
422709.543059
3299793.36756
26553618.2588
7507752.04235
150125142865
422762.640279
422753.686469
19171038.1924
4504792599.85
8846155.0161
441901.873693
422738.354218
441899.258265
468177.670847
483174.884095
7684267.78559
118460153.72
14342565543.5
456137.042752
647975.172443
17707933736.7
562664.073619
13303054281.7
422743.555848
3.93929978767e+14
422741.528394
483145.190315
2.28149456435e+13
4106850.96174
4992176.27012
483198.104152
441948.203178
374097220.879
101497265.742
16996598.6203
148797793.704
82240179.529
408122.259341
6908535750.57
5091341385.63
422764.627221
1146590.30167
397746.319897
154575002944
2.46927223367e+12
11029789.0296
4535625.3485
6126134.51555
3439959.09739
9070829.92507
26268545.9687
258443576.595
416879.178739
483205.695361
2.53326081161e+15
9947704.08426
12797708.3231
468173.545933
3791913.42924
492902.189529
416836.26979
6680853.43967
1.28609930103e+13
5041355286.16
12279357487.3
5759333988.61
1.12604409962e+13
54723829256.8
416027120.734
21074504.198
42483938214.8
1586432824.41
547875.621677
4718334560.54
27958981.3715
124888663054
470605611.088
1836589.70665
4398957805.18
957026733.861
69627308.7554
677011682.833
4424666.76171
30229150.7879
6041155571.17
3301617.63155
2132312935.36
24575055.6039
160578145.968
47455022.2125
26077197.1637
376891544.984
6891548.09868
26234512.0358
3.36048037727e+12
1005517498.75
8419832.34659
248650072.511
2762987.20161
757847142.874
24366536.0205
340152718.873
3001370.60589
251058455.231
422708.857685
483098.625173
563866728.937
3.24104049083e+17
1023171782.26
18354955.5861
2540392931.57
422708.929532
243928.434679
15410.4587785
765305.136917
13374710.7265
416780.398255
24249622.6858
468167.967551
12048315.3988
2.21421710887e+15
1.72351883078e+16
5041270439.49
2.04381293517e+13
2315545.43027
10851211119.7
4.93007642115e+17
2.21607833016e+13
1.17950157538e+19
40077310.9733
79478638.3687
3.66298042983e+12
130886.902785
1.65344910886e+15
2.31298613341e+13
5.49139637272e+13
67781441.7008
407583.420069
488765.979015
2061881.76798
18354.3018375
53623.0839091
191985.440416
846640.113083
23073.2015664
2700547.4922
6154433036.99
165514946.843
475851518.314
55015869.7626
33841394.4606
540481158477
70877072.8752
2181753.48547
1049763315.1
213293921.716
6333433.07026
584907.555924
5650769.86144
255082.709493
450146164.621
316134501.056
63628493.1599
4853459361.4
79395036.6191
341850162.75
77646836954.6
2358822587.51
40368073.0346
3.78721215231e+13
13847324300.8
7422292040.42
17556720.2054
2.29853384447e+15
1242436922.63
648472804.033
1.12258201811e+13
235752168.461
422704.356529
1163619.65218
422704.386947
394774.520232
536108.267161
6.24538324835e+13
23725148126.4
422708.17663
27959479.2603
38909.2476275
963368244812
536080.384107
263498401.538
27641.3708506
1815299949.52
327664.932299
13446169420.6
68616553.5642
3601544.51496
99251200.8052
1373738.0408
408047.536988
39048073.2573
75274159150.9
771849940830
649857.353714
1085094.73813
13433.5933042
10460.3086123
12721.8632685
12885.5999977
5854002.87772
3582421.39943
57922416.3407
84578.8831995
199917.69523
984157094.5
1725738.53585
2733.35465081
2966.39165264
6589.81943195
2165225.92985
1203565.93659
1509336338.82
121077658.156
32944.6356814
83921.2725715
69759.8955878
7762920.40945
636873716.99
9363824.41917
3.23262180502e+12
36968505833.3
190684948362
313136720094
25550.3943943
68143479.3132
30572.1124596
592239.799087
1461814.9701
2124211.83471
165200.782059
10080796.3053
1190942.52889
7215.10536692
91341.2259661
79411.416818
28175495.9749
1965167.51152
7718138535.57
9915447.87942
121013078.829
545222.754591
106771146.559
303037.318127
29768.9186998
6410905.95891
4400242.28775
1786231.4252
6782864.75451
3361277.79046
34302038805.4
448655400.985
10847899829
54546562.0097
3856804999.39
100380007177
3015395677.09
102063.984603
279568540.473
42029974.8292
3574978.33486
644972286.268
7907098.36191
1114639435.24
805058.096978
10086359.4562
113294.748997
4620948034.42
39849986.608
30265902.6692
169534661.633
529405602.708
77905107.8388
279280416.449
46994.2137352
26998382.5496
4390726087.67
29853271.3015
54123022096.1
220735011925
12971452112.2
144257610.513
22040286.4261
171453942558
1522938300.46
539932352.216
4099847273.47
44838041.8665
5.65990421975e+15
4.13526068824e+23
2.54210256922e+16
1.07306872818e+17
5.86615720108e+23
1.33335305989e+17
6.21514463023e+15
660581107393
1.08888396512e+14
3.83915887467e+14
1203366.09855
39526642058.4
6.40960886587e+15
14559101.2281
6.61640480945e+13
6558350239.26
422717.805524
280204035213
422720.165895
1.67507148918e+12
416803.680274
24676.4002849
1.74850189944e+15
1.39514993692e+14
46355355451
18440476462.7
85442168525.5
38906641012.8
541152019116
4.31596774923e+14
1.04618808096e+16
1748146958.98
711165279556
7.09647683103e+14
1102307121.63
580270660721
21091611518.7
8.75763048744e+12
1.56152852371e+19
463279.379731
4.1051856673e+16
1937349.87599
6459599772.64
45307759.2123
576855156.916
173330683.82
4909229.74664
84362142.3655
7.00750128898e+12
26533558104.8
591296453825
82974970106.8
303887723291
1.01334060343e+13
203935226629
68023730.3022
47825381.7774
1838662.07209
176021447.347
8919079.13817
716928063.55
23748762.9336
422712.687577
21341031.6818
1223908482.24
28251654.6768
536062.073267
422712.303816
1.10481824323e+14
2435375752.69
7688654994.84
115668878.503
426052920.651
416791.049944
35127256822.3
6078747.22154
448372190.075
3597732.03308
25991138.0741
67227928.6074
100188271.752
3649205.91343
1.03864214741e+14
3731286528.13
150720466680
1823232.25103
6.20851503675e+12
1.66349028271e+14
54230619516.5
17716287257.3
9425914.91515
11313513.8817
14196616129.3
422785.867983
45608408904.3
925637529.908
9.68107745345e+16
61056341006.4
4120820564.84
569645011.466
4538575067
448430.266936
1754919959.64
34922274.8257
5568569853.45
1161501583.94
220636781559
503161565.773
5070972432.2
9265827.82159
3805635.43502
155699104.515
76632102253.3
8161530.08893
983739690.526
4382027403.63
17485708589
45904178.2746
703884292.85
78481242.6058
64271959.6694
422712.11343
353644857.305
67873205.2333
416799.35685
394744.71637
6084125.81987
22138758369
4096238.39424
31286757.2879
735330597.609
90139034.857
21666725864.2
39451023820.3
10064057.9224
342781668.428
1283740.29441
7051839.62499
1232026.12182
37043925.4116
422712.121803
316011850777
12631431981.8
422712.098926
69811070.2826
422712.201498
536068.91965
776619357.431
1.64760974585e+13
3.44264304604e+19
422712.220197
892285527.676
150272594993
7184843817.08
11848160837.4
88789148125.3
12371694.0417
3.04430297713e+12
23668044.4981
19170308.2754
3398108.72435
1092410.27052
14320557607.1
275094.118484
2418759145.7
6533817560.6
1.20070738782e+14
12411342282
422704.267157
2717268.72382
52388428.0758
913860941.912
275865516.078
1.05706726821e+13
2215506.29962
41798437.669
9588537.54116
43085.8716503
2026877.28688
790334.065543
312479.28176
115833068187
711715362.173
138506.351551
2878398.67817
902215689.875
3613777769.05
88543581192.1
196226.721081
27672075.5108
25674502.1215
250952686112
843934.195928
15020152432.2
49415876.7701
1092617.24008
28246136254.3
87033161.5085
397683.034017
19205437868
422712.090832
591823.681091
1130714.73437
13517269.0867
536109.221666
495102553.833
2038661.43582
2037031026.5
422712.103761
422712.097144
3016108.73971
11216823.7409
408050.406696
29102563.9383
422712.088728
16078033.3004
10103334.2388
295170.331664
687581458.736
2623687.01025
122407763.303
20095367.2552
7729007.65236
133651.803246
38288947.5292
96514.5060442
1313519647.07
2949877804.94
2025624562.76
80168193809
1157131415.45
120071.620954
14265228353
57473716.0032
1024427208.79
699855861.394
449460805.098
369620149250
13947732688.2
1203062847.84
1.75028730615e+12
20230203550.7
553643071131
1.50891511957e+13
343207957133
875765233.067
86553155.168
2351815203.36
606691668258
406420030.885
7010558527.95
11734062715.3
11977640933.3
41462149124.5
19209829.0171
30588990218.5
2.66664526303e+15
12604914300.1
4.23659897773e+13
58072280916
2225177124.84
637831075097
12173629800
12293177.8059
79914165.7538
4827535477.01
6636373.86736
19178512.1076
202320.337497
320306.977862
895709.360409
8624207.97574
1569129.425
8506516033.68
9297770.37152
141983.856588
192602.505932
101115048.706
156440.732691
3436621.75428
2069617766.06
5095210.64159
140483.840002
28373645.5945
161659.965943
27936519.1594
112629.640888
126563.189723
1.07906881652e+12
255904184.62
149672.929117
1435058068.98
26037828.5862
655038.630931
175644.055511
10455425600.6
70167911747
17513663.209
17578043844
8103287.5877
858453336.433
4641577177.57
528541.178765
39075148408.5
26171069.7323
10625122962.6
734548808.209
48841548.9296
138203492.857
4209625.46559
29802398929.3
10964643447
118928421156
7814890659.67
6691084.59964
734253060.549
1521683463.57
5414540.99561
1395370.71249
9157900.27079
7282094.19233
354192.534056
1137083.37382
808225.931982
589134.64478
45904588.1906
96861409.3608
3.18505433e+13
7514912.57048
3090781062.71
17487610.5954
32273058992.9
3454797.70503
651175.238277
1711175848.72
3761035382.86
20368083320.8
37811953227.2
2464734423.34
2664959406.12
3730878.16078
11756654.1186
7.81446285192e+15
1.80336390869e+12
228755883.242
87960.0255078
2485018.81827
7.02355944674e+12
1468210.22504
2453361759.57
50979897.328
448842334.53
1.53933100748e+15
8.2988039663e+14
58141548451.8
6606123752.44
6.05514620662e+14
1.5602504037e+14
2183542096.6
50600646766.3
10679296.034
6489202.15788
7420993.95067
4558093.05371
237628.410433
983488.496236
1.42410075373e+14
273432761.029
22120355106.8
6392980.88075
8379640.14674
2358355.56858
22212769.8852
4610168785.71
118934174.192
5792709704.84
65845202.0938
79891655.7605
14831417.1019
14333098.3929
7925814.82574
4315142.57854
59824865.9385
426422.86049
123741.309388
606762.314356
635673.312586
8550171.07619
1769859723.34
9055185.05406
517557.809559
5648365.78614
16137743.7722
5346525.53675
225796988.4
310032044.362
621072938.756
40310670.929
1304803.90894
400626.901119
21730107.3537
124286038.558
29363841.1309
13831520.968
442250.142211
23407389.2038
1966216.31459
2973836.19886
541890438.439
107111188.726
443315958.867
7639915.27158
906519.266609
16576426.7276
263593.760388
83627401.6376
7.16020509896e+12
667345117422
85696592970.1
85734524360.8
448418923365
17036969.9898
5458290093.28
151755421.078
286615507.196
51647629.0095
1295459529.23
163270843.366
142616429.344
422723.609431
422725.1035
441896.567956
422719.390881
422720.231269
468171.432212
422735.234142
94859863430.8
416845.64365
422731.009528
9820748.93749
408115.728995
422726.683972
422725.242453
422749.158349
9036540809.77
17524412.9532
394842.618042
235759047300
6814154083.37
2.623405035e+12
4420720893.92
686071425576
4908488.90577
230923226.016
66990385387.3
5796852449.74
555072798881
1.43406183313e+12
86666570.6801
84591147.5859
533103493519
587190171.69
5572194.16049
304618010.503
3.35075399511e+12
950851450.241
5.55787386357e+12
19134638617.8
8702279.7139
122628.151042
267833693.4
469162378.351
2064566.49395
664030667.157
139254411131
13556533.6933
7671143.98219
342257386.905
6009381.25786
1009589580.61
2805437207.89
431602697.104
81657543.8872
2.18414907637e+14
3436980985.57
319986762.37
7148995.54327
2.15290689262e+12