/*--------------------------------*- C++ -*----------------------------------*\
| =========                 |                                                 |
| \\      /  F ield         | OpenFOAM: The Open Source CFD Toolbox           |
|  \\    /   O peration     | Version:  2406                                  |
|   \\  /    A nd           | Website:  www.openfoam.com                      |
|    \\/     M anipulation  |                                                 |
\*---------------------------------------------------------------------------*/
FoamFile
{
    version     2.0;
    format      ascii;
    arch        "LSB;label=32;scalar=64";
    class       volScalarField;
    location    "0.01";
    object      p;
}
// * * * * * * * * * * * * * * * * * * * * * * * * * * * * * * * * * * * * * //

dimensions      [0 2 -2 0 0 0 0];

internalField   nonuniform List<scalar> 
29767
(
0.355777563397
0.366743190071
0.359716536952
0.364347979231
0.366756348463
0.369510428303
0.378301593659
0.381092930208
0.384922586945
0.376461292567
0.377189197491
0.381423126749
0.37949877456
0.38258966204
0.392254220628
0.388298206792
0.381436401349
0.386439569079
0.387133662588
0.387874397838
0.391197244916
0.394358918427
0.384658842207
0.388411147231
0.391034782763
0.401519939412
0.389137036193
0.40209294162
0.399339095635
0.396747318032
0.402331459791
0.416398245141
0.41608574792
0.404038028133
0.36844797359
0.332276551257
0.394146612727
0.381719456405
0.392232643085
0.383779160646
0.39870343094
0.351490763069
0.317407723673
0.380282840826
0.376952604388
0.340328329713
0.341307671051
0.407124564895
0.405088631871
0.405430824638
0.416783286106
0.418120595772
0.418312738408
0.41662216848
0.418412580738
0.41323454257
0.401530736167
0.412257932841
0.403490583195
0.412833678813
0.412790991468
0.4031370917
0.419807358639
0.41848676475
0.418794151078
0.419829317758
0.412924138668
0.409723426979
0.403235872608
0.399735367076
0.412305136742
0.403212123553
0.410389945045
0.406579078775
0.397662529423
0.407714169761
0.401427235851
0.389124247449
0.399736255675
0.39070467421
0.409474477443
0.41249335376
0.40702926865
0.405288047146
0.406700115239
0.411622054623
0.412174039731
0.41268171734
0.415761120166
0.413787329257
0.413708933302
0.415628240222
0.417117382517
0.41882908583
0.416386129646
0.414164138625
0.420262445971
0.420075232043
0.419040064249
0.419733602611
0.417996427537
0.41918885373
0.418879446012
0.41892000479
0.419428802214
0.416332547951
0.414655947145
0.414819134185
0.417592573583
0.421140865491
0.420880829484
0.418352463528
0.416193687273
0.417687679056
0.416959676098
0.417481338546
0.416507727637
0.41668381011
0.416313244668
0.420009404717
0.420038376878
0.42072268102
0.419328401601
0.419126490193
0.418942100453
0.419625738091
0.417976452231
0.420454566617
0.419370583446
0.418532995647
0.417170883397
0.415264155446
0.417578780966
0.416955539368
0.418562476033
0.420596754663
0.421202211123
0.41867966566
0.417489604791
0.419580930273
0.416424925207
0.412613307714
0.414611097557
0.412321165732
0.410503869378
0.414613829843
0.410635347513
0.412290207939
0.414455032429
0.414240492901
0.417525952749
0.41248873224
0.410744050345
0.405938056541
0.409129778682
0.408463241248
0.410174916769
0.407065450537
0.406386752019
0.404084778447
0.407458121946
0.409275783102
0.40694342449
0.401973465851
0.40421386166
0.400161556818
0.397512644441
0.401548825288
0.399827665143
0.402763303407
0.399091452852
0.396088842397
0.395724055139
0.399102706455
0.398029583351
0.411018850396
0.408529423551
0.409106778361
0.400638993702
0.396988419702
0.411420600305
0.401348612712
0.396175250116
0.405727170832
0.405965963921
0.387374846488
0.394546534863
0.401783140832
0.408503492099
0.410062856485
0.40843379932
0.411707232726
0.407962757699
0.400785698918
0.403562606305
0.405597049465
0.409987192472
0.409312612339
0.406783502844
0.411793272796
0.415131735264
0.411405315655
0.412950365805
0.413859019277
0.416836157294
0.414172205944
0.415412919429
0.415740138085
0.415479732984
0.413493596388
0.417116370114
0.416048902831
0.416494670181
0.414515331571
0.417550188312
0.412691191416
0.413698381899
0.414431310849
0.414791808602
0.410438403894
0.413077587342
0.412923315186
0.419052084479
0.41653591066
0.418059005614
0.418166955378
0.377332829906
0.373156315287
0.337985632532
0.339517278634
0.40631704944
0.364015736218
0.38311799057
0.381395411389
0.379462624891
0.372159226921
0.36112493885
0.370319897506
0.389183595048
0.382912483282
0.384573752555
0.381541278368
0.383843578849
0.384612451558
0.382510935848
0.399228567929
0.378084137826
0.400588528688
0.38207729935
0.418970299608
0.384025615209
0.402650116346
0.280301991187
0.420347475753
0.400105865899
0.284332762532
0.398200377986
0.404154408174
0.412652914006
0.410675712105
0.415572142762
0.413041256411
0.410834701794
0.416612110089
0.411704058515
0.410454234111
0.404270833811
0.411698325033
0.399464100226
0.40844764034
0.413939883491
0.402038166869
0.417015149242
0.415177788039
0.419026736331
0.414969813942
0.4167615421
0.418413468455
0.417885157866
0.418465593973
0.416623488645
0.418190530548
0.417036606729
0.41316994517
0.405704418245
0.414906425921
0.407863089859
0.415019379507
0.408046975583
0.27330592278
0.371959301493
0.33746707408
0.385855193122
0.355594401023
0.40379127817
0.404087165631
0.402057529985
0.323644255674
0.378827936307
0.344471387491
0.344098030761
0.416879385947
0.418746290419
0.416857018488
0.41965331359
0.416099778498
0.420552318537
0.416993548288
0.407598511594
0.40315326368
0.405916541905
0.401966186849
0.406438435824
0.406743144972
0.403238936873
0.421367236699
0.419832322542
0.420107166828
0.420671121481
0.419929280509
0.420166056152
0.413852687047
0.403148447806
0.411817267125
0.400629636384
0.414419922809
0.403901683417
0.411209374199
0.421352633552
0.420713279854
0.421499558233
0.420545475428
0.409485675631
0.398229712094
0.392294825791
0.403087392551
0.408779414731
0.402308056536
0.391841385146
0.417644455828
0.419247208337
0.419131435328
0.417872061492
0.40663472968
0.403964541479
0.406964606007
0.412871795227
0.410069086289
0.410079262648
0.417660046037
0.415976204025
0.412346989208
0.413155728582
0.415945572397
0.413164178259
0.416570677007
0.415662796887
0.42100275392
0.419197416025
0.416928230996
0.419620684556
0.415913639777
0.417092851185
0.412223941322
0.412714020438
0.41900509811
0.412230924602
0.417838623151
0.417432414902
0.407155037833
0.403523962494
0.407086060962
0.404114957002
0.408334828648
0.406858811487
0.402948100481
0.409113006515
0.408679716614
0.411702714193
0.412358873829
0.408204575644
0.413087853399
0.409102963591
0.408568672647
0.41518845851
0.409314761439
0.412415541489
0.409006068764
0.412797979445
0.409178695289
0.418959976392
0.417124383035
0.413316934735
0.415906138859
0.419265606627
0.417506864622
0.418912220963
0.41753012374
0.420162271288
0.420836005382
0.420791718549
0.415583182338
0.415467037225
0.418558547742
0.420877571438
0.419813704773
0.419306993257
0.420990502444
0.421590863911
0.422927306942
0.422160353694
0.421557955062
0.42215352315
0.421271192642
0.421797910763
0.421285348695
0.421795678098
0.417199192843
0.419732361908
0.4193890487
0.419368897555
0.420522765517
0.421239213274
0.420757278895
0.420776064783
0.419800800306
0.420662538875
0.419742522543
0.422119302048
0.422113214486
0.422113698719
0.422192440895
0.421548089392
0.421609454555
0.421513135525
0.421684370904
0.418986874715
0.417306721441
0.417550520001
0.416015198694
0.418827107966
0.41662669457
0.417761871531
0.418740103738
0.414405726469
0.416187487974
0.411573413369
0.411989567819
0.408329005031
0.408882204719
0.413077458644
0.417358249867
0.418929650305
0.418460127686
0.415559182549
0.415337647328
0.417272843113
0.413482702675
0.415368383744
0.417029750433
0.415605673673
0.414205560415
0.415155006283
0.413111566248
0.415191878527
0.413758410258
0.412166582685
0.41051184852
0.409788899507
0.409092919615
0.412767754891
0.411186541031
0.411157131701
0.412192147459
0.41493181314
0.414389914631
0.415359979542
0.417150273399
0.413884876651
0.413811378124
0.416090803029
0.412808371707
0.413507624438
0.409364860439
0.407272662273
0.4119873513
0.410478777484
0.409170728952
0.410797024269
0.410713838445
0.39680809134
0.395985116654
0.384714565384
0.372850708059
0.383985674097
0.371103295165
0.382303985308
0.402629534523
0.40668190322
0.402896104542
0.404490911942
0.399469277671
0.399641997545
0.401216528296
0.410262893808
0.407762714913
0.406712833125
0.402712817237
0.407559383552
0.404759240305
0.404718765614
0.400619729468
0.400118396584
0.4013675075
0.39854973355
0.405784579368
0.404427869607
0.397748611552
0.400899970231
0.387884762711
0.386499376931
0.384452313721
0.391301517578
0.405096677801
0.401443181813
0.387248755605
0.388678145596
0.394797075732
0.395493528282
0.392629518043
0.400031818023
0.396780490259
0.393573032696
0.386677044836
0.390053546959
0.393255910462
0.38994707821
0.397005147362
0.3915451783
0.388567533439
0.395119665467
0.409142176506
0.411417722641
0.395368118497
0.401409783628
0.409687717133
0.397591276675
0.41160775649
0.373838251104
0.34092085577
0.339327300116
0.413905822586
0.41381343583
0.402121459885
0.402547993662
0.413476747034
0.414201214918
0.403858217912
0.41610913799
0.40930168797
0.413794351913
0.411181755681
0.412012150281
0.412912974998
0.415654921733
0.41690696621
0.414433439485
0.415436605603
0.418010610554
0.413246191425
0.416022194895
0.419012021505
0.420116866803
0.418349362717
0.418403661107
0.420234236209
0.417718772191
0.419867760895
0.420392318764
0.419723355226
0.419189738769
0.416132323396
0.416533273813
0.418028348552
0.418053349533
0.419802716012
0.419835396317
0.4183176101
0.41588362926
0.418518020243
0.417509571388
0.418896002755
0.419616110714
0.420245793151
0.419055249031
0.417647254871
0.420825393774
0.418301610913
0.420776662334
0.420648490335
0.419860330189
0.417930963053
0.41998285222
0.418925319964
0.419758563446
0.420192907066
0.418190705653
0.419576795159
0.418784386716
0.417308599161
0.417088862684
0.41984752705
0.417692402456
0.418509579741
0.420379422577
0.41871111504
0.420883172131
0.418527593646
0.420590563139
0.420639534576
0.418978841726
0.408207958667
0.410242475373
0.41570188336
0.415819515874
0.412631987854
0.407036198282
0.410354253534
0.412827964256
0.413436628511
0.415476078118
0.413652147205
0.417888082625
0.416337461693
0.417326174663
0.418324044841
0.419245077799
0.405042528953
0.39135127758
0.402783368359
0.387669113012
0.405063739269
0.39530627532
0.400968795332
0.401501678308
0.419037787245
0.418843144203
0.406269192553
0.40190635405
0.406635954228
0.422416445357
0.421627872141
0.422865604623
0.422916229309
0.390458185805
0.389489664852
0.418082558159
0.420796451029
0.420496530314
0.418108742727
0.420307852244
0.421064079786
0.419272031475
0.420848314064
0.384460323053
0.382861912797
0.404456472297
0.404038338553
0.121222249829
0.323563342985
0.183702146488
0.0784996462621
0.170381494328
0.26200073438
0.204431042661
0.172152534104
0.194585461039
0.250803419701
0.33819975649
0.321064702936
0.208470120945
0.274528326651
0.183721321924
0.257430185121
0.188889452607
0.261438643024
0.2680149699
0.31617546353
0.324912188217
0.366516835483
0.269896096237
0.317558550946
0.325581002865
0.364927873763
0.386418490348
0.370103087971
0.387271335921
0.369763383405
0.364288987958
0.392479531432
0.392259837655
0.0921197122354
0.104985465792
0.163081387741
0.144724415256
0.121005498969
0.108687418367
0.0934885832299
0.184635964316
0.130980504424
0.178090748487
0.123419364675
0.262898913948
0.316833613761
0.254414184295
0.071901777948
0.363436608731
0.391437580297
0.389939984802
0.358138675018
0.109341391868
0.0868671820177
0.0873509728219
0.135201812021
0.0974422762342
0.131614457698
0.0871666417363
0.120028829605
0.07049831608
0.0817004634712
0.0879548445992
0.0595084103493
0.0603762914033
0.0583065926873
0.0631986165287
0.0591181186651
0.0727942473814
0.0779313737494
0.0493931349489
0.352467214327
0.0721417856169
0.0590252154343
0.0573566635669
0.38476945164
0.181651760962
0.0484475965146
0.0895002814753
0.319742390658
0.126052826864
0.107868421497
0.129987911823
0.105358500176
0.130511025119
0.0736485005595
0.170964925895
0.383936713186
0.184893340226
0.184989024807
0.391794840662
0.0667675358773
0.0619426204242
0.0653359300719
0.258244321446
0.346040106622
0.230846560104
0.189865165129
0.207151894424
0.188965100715
0.211864156563
0.0863961973632
0.0857958197723
0.106680783719
0.0897523263182
0.0730472338326
0.0867027592574
0.0753864581406
0.0601676951975
0.159960409925
0.170883373889
0.202850259153
0.330584911601
0.397881166071
0.314999116053
0.339731739427
0.189557312013
0.296906022973
0.326170064346
0.200219124406
0.106748091842
0.187533036429
0.156277878597
0.118015298664
0.151995902473
0.124303611372
0.340164600899
0.213951413501
0.224295276925
0.188422087948
0.20869949866
0.184296491847
0.212297997094
0.183971713554
0.0741873841697
0.260077591626
0.174886940434
0.266265803532
0.290850885802
0.174548817096
0.268180708088
0.402231722459
0.401035009138
0.398778008212
0.344087336822
0.363845853465
0.278728594746
0.287481286362
0.175820840858
0.104183687865
0.0812143679797
0.366491766003
0.311034400147
0.290335301563
0.239580501295
0.319877714093
0.344198101745
0.199551873737
0.228629900813
-0.00175870142201
0.227488780468
-0.0269240308279
0.183737810176
-0.00256932070318
0.372408524724
0.326790598972
0.384115931381
0.302277158007
0.375758400722
0.403898946977
0.361356504995
0.410044242066
0.372217943916
0.276371705679
0.301256129832
0.353985014174
0.376392252237
0.414771710601
0.386601603585
0.409013129724
0.165087240947
0.31980939732
0.197543936954
0.293586229919
0.133906208061
0.024084168495
0.014892055245
0.123758984895
0.122937102386
-0.0212216519408
0.181594541703
-0.00193838869714
0.153544139471
0.260131944954
0.292340100588
0.130157391449
-0.133402662561
-0.0251540046075
0.156476086272
0.219789101457
0.216909873821
0.14068483487
0.160203677147
0.211346295567
0.222331608807
0.160172275786
0.135797461376
0.216417490549
0.238887975658
0.132807166768
0.127184564195
0.261484204871
0.135708647526
0.237164434151
0.425587056711
0.405563131539
0.410656936103
0.423978665804
0.424532794717
0.415760690244
0.409649684223
0.426320312663
0.342064254326
0.358851781246
0.21083531233
0.216418848907
0.355862381044
0.219501932211
0.222121061663
0.362843242351
0.390814323175
0.42500553091
0.42450056046
0.425147386525
0.424847824356
0.37661037028
0.402935462787
0.425649682088
0.424827409988
0.426092260503
0.42512148935
0.424474523539
0.403974114548
0.416402567224
0.397282579809
0.390060873015
0.355118288641
0.332539852099
0.275893341222
0.281014487139
0.274086128043
0.285301546135
0.245687079462
0.220016794675
0.280256170926
0.111859156399
0.379638466507
0.391758781316
0.363263823882
0.40213838762
0.37135207542
0.37284028287
0.407257503694
0.124934823884
0.17825251355
0.183801910388
0.157809050501
0.125334458851
0.124679935342
0.15536115439
-0.0126683166044
0.200697668707
0.0726372515471
0.123674170766
0.424200491339
0.406349710531
0.419141118657
0.399333534437
0.423291288024
0.39696679254
0.407315203683
0.400589428278
0.411499141589
0.420841154016
0.405298560556
0.305009607301
0.247273039258
0.297056036543
0.248817798004
0.219608489237
0.247343690006
0.220528477591
0.353722079427
0.317121314585
0.325643924886
0.271137423354
0.282129827358
0.267559105539
0.283710934095
0.239477527477
0.279161167541
0.290184481491
0.243836196604
0.212310491339
0.214205158516
0.239872957534
0.271471752211
0.341620295828
0.343620465714
0.300758627416
0.239723598038
0.209285451939
0.263133250103
0.0910642102816
0.272354193901
0.211180347746
0.105147236343
-0.606907993374
0.241531907872
0.347132790469
0.2660603067
0.323262284599
0.339680216965
0.281990311667
0.33966697121
0.291466894139
0.240105490534
0.380343735237
0.392712341157
0.380113048619
0.412978799402
0.388991940184
0.373729839589
0.407964131095
0.369789393495
0.349187143526
0.325939911385
0.311936778093
0.358532362915
0.31952967917
0.359870510918
0.371554721824
0.334958558403
0.369186294395
0.330582352046
0.381732204743
0.361615483447
0.321463471081
0.22663564492
0.235467785797
-0.424065873267
0.183254105663
0.188261737109
0.254580490624
0.0995691666671
0.246346050176
0.204593863591
0.14632114414
0.216218333239
0.247160553603
0.310127043993
0.284391834519
0.255233867547
0.297674310565
0.230128134418
0.214668986371
0.319791368971
0.27302994544
0.316256496695
0.264024823565
0.237048778587
0.302544775529
0.106246475975
0.199783054093
0.231763017991
0.0583948983242
0.145390305554
0.193498067306
0.14802529257
0.15207876124
0.186553331753
0.188165246061
0.145507588822
0.270715862305
0.217005452333
0.262005224347
0.230240057228
0.21181568356
0.234872739774
0.203114490781
-0.60195364897
-0.13427175293
-0.0508878401907
-0.0214091669817
-0.0734129284019
0.217563634367
0.245225431383
0.273851861235
0.280041105867
0.22255517509
0.237535395549
0.26575364513
0.0213741641063
0.209940182827
0.155520060551
0.0429438821028
0.419119376705
0.424855797457
0.405651736336
0.415090353396
0.407538010499
0.418162287627
0.424419181199
0.410905406165
0.415511585319
0.418549408517
0.425887625592
0.423705353903
0.398089788313
0.414454860808
0.407894787745
0.411660433124
0.424490912626
0.404766955555
0.326580182295
0.350006377444
0.383042386299
0.39288531389
0.416739682031
0.396098102614
0.354429005172
0.353118423245
0.392934690227
0.380073103338
0.402678152221
0.3829121066
0.413609518433
0.390240397737
0.417051950565
0.392497833488
0.388377411096
0.351008392619
0.393386995564
0.338069307812
0.351757394195
0.372214325894
0.352096367679
0.38245650757
0.39049727884
0.378133515705
0.41479758195
0.386062371439
0.417092877691
0.395381111489
0.231635232198
0.229722540671
0.321527059524
0.328909371397
0.333824429647
0.37990433769
0.329589105533
0.384937383254
0.233594104059
0.234183618416
0.323547077729
0.324838523688
0.332484025417
0.389891476687
0.338609003496
0.384007557906
0.230350174348
0.245143727699
0.342495992574
0.328588397108
0.404012338827
0.362512316784
0.348336518469
0.394667896835
0.272054664518
0.353399038049
0.246271063566
0.342547174629
0.347723063839
0.388745880588
0.338343419274
0.397027167488
0.225280478359
0.165589516574
0.295464895341
0.222590132025
0.279676073173
0.330274409844
0.2750593041
0.286139167432
-0.475787599624
0.302672439016
0.33071496801
0.28774476836
0.219726253731
0.264917947216
0.278794166653
0.248412993752
0.139879270515
0.165761137899
0.0273726643148
0.151540339964
-0.619631063802
-0.588215428672
-0.612786449853
0.248387408151
0.168575995432
0.124081138616
0.024382716064
-0.632065936975
0.149606506124
-0.626226946802
0.208652985681
0.141155474461
0.115442880371
-0.544519458108
-0.478858117774
-0.525641862347
-0.551727316898
-0.591600619637
0.204891228276
0.0858346409565
0.110412565079
-0.257777872165
-0.549586959774
0.1215419022
-0.0228137764106
-0.657799641821
0.0918078258323
-0.555058719527
0.377889747168
0.345612809909
-0.334929744503
0.354499903637
0.355823507532
0.315269487788
0.349466767961
0.377334619707
0.361236136105
0.35518918407
0.339852997127
0.314478622409
0.241971390012
0.348923601707
-0.329831423047
0.36926129327
0.394499967128
0.389972936195
-0.318090920627
0.388136182623
0.407363298499
0.392471745981
0.379093533979
-0.295617947541
0.368405857815
0.384461454593
0.357865253847
0.389913833259
0.378336719675
-0.306431300455
0.396713163769
0.407261815861
-0.318163266987
0.392500235299
-0.317576063179
-0.299759950178
0.326123405719
0.345123763209
-0.331964393518
0.365307515577
0.334801698551
0.213025727599
0.322287105103
0.222739241181
0.285379668637
0.313121195196
0.307741724357
0.321607272555
0.252711611731
0.323474902845
0.339266720842
0.268379638479
0.292976681473
0.327522733023
0.249135666823
0.327463134011
0.364711335516
0.328882581201
0.352098587905
0.313502484228
0.331715095579
0.380161032086
-0.332619735221
0.394269555996
0.398356029197
-0.318757784572
0.403918652903
0.411180916266
0.399404796567
0.380253732264
0.403025428513
0.398001969382
0.395458197762
0.412042947628
-0.320242178681
0.399759159585
-0.318402895086
-0.00482829667952
0.171354737552
0.225354720709
0.244146255004
0.064895488087
0.173760155693
0.273426122889
0.308091639168
0.258327124365
-0.426883578909
-0.472381286022
-0.419388514955
-0.422210589473
-0.0451588563732
0.174635796195
0.263148632063
0.246449506559
0.0673357911464
0.236263624576
0.307445364569
0.258846439027
0.256306672926
0.19202489702
-0.440736301342
-0.47619301261
-0.52995168844
-0.308008156017
0.159936597934
0.0863425434931
-0.212969112179
0.0359294806881
0.0815217704372
0.107814076512
-0.0222336244812
0.21409108536
0.142141660482
0.164065557648
-0.0408203241631
0.195873660828
0.123031302165
0.221431005585
0.0767379857287
-0.11234972527
0.030142289188
0.114123095727
0.204231051378
0.271882306165
0.202668596784
0.243994596016
0.215663156565
0.109495304731
0.0912728243036
-0.0560069317541
-0.124761000401
0.135970630739
0.239112294278
0.266878423923
0.273291055446
0.242087815249
0.181628557251
0.225500194583
0.0800372090806
0.138562360724
-0.00191791151634
0.182769945565
-0.0308372475061
0.194583540421
0.0727028265118
-0.612568218777
0.00327207111473
-0.133434992175
-0.613162962533
0.130256653802
0.102269440622
0.0202117587528
0.134299092728
0.156865226413
0.00298060924036
0.0925028867674
0.20672091479
0.200344959548
0.248610857187
0.189096554561
0.103167695419
0.189031018886
0.0915626847845
0.179153987334
0.167856734303
0.248544957489
0.183190171755
0.0936870342481
0.189729652556
-0.313040013893
0.420452341146
-0.33730969322
0.424303583359
0.418262010746
-0.331542834543
-0.325437012928
-0.30977509444
0.408983638499
0.416387154111
0.418104699771
-0.295994340289
-0.283581098012
-0.312083958947
0.419820713098
0.408932101848
-0.319030458155
0.417349315852
-0.300419286111
-0.329346697884
-0.30966914593
0.424963396074
0.417651564867
-0.297899525576
0.419046631125
-0.28440751578
-0.320529101456
0.419480867876
0.425950042238
-0.341547083209
0.420904133984
-0.333955706767
0.413149932738
0.422218461267
0.421825384275
0.418484942428
0.412623971072
-0.321326017376
0.419853737972
-0.331725053002
0.425620413198
0.422446643228
0.422634951426
0.380640742851
0.285151958091
0.294017117839
0.360815470331
0.292923796877
0.291140995704
0.350769457754
0.290085779424
0.288494713029
0.374783881733
0.407221349032
0.400894046218
0.421568342931
0.384868850842
0.406206524999
0.419982886012
0.395963114082
0.398606579231
0.404773229302
0.424550395355
0.399334304884
0.402178992873
0.422709254186
0.402959491674
0.40317589129
0.424714915251
0.403468470126
0.422371757258
0.418129911198
0.423124019434
0.423676439178
0.401096895023
0.425120516061
0.422578905311
0.405548291247
0.424486888954
0.397864665672
0.420837637102
0.392310588579
0.398550943396
0.422692152656
0.417146583583
0.425879202504
0.426200488585
0.426072679984
0.423953668495
0.424143498676
0.425931919646
-0.340434397147
-0.487559796079
0.425962408493
0.425993019881
0.425528191977
-0.493154856866
0.42456643575
0.425332642927
-0.340281977474
0.423938086226
-0.327050104504
-0.33419433718
0.426152159586
0.426104336172
0.424578904714
-0.298794076148
-0.322153904029
-0.331668944763
0.426605506295
-0.318384498564
0.427048084657
0.0608367449366
-0.0615555964243
-0.0345293061336
0.0599966819445
0.194754558876
0.148391283278
0.184703510573
0.227219885147
0.237107946662
0.145284927041
0.187069175208
0.0793659905237
0.0391220354901
0.049062025221
0.326143517936
0.288759559778
0.293475051103
0.252851206423
0.267712242366
0.245050011719
0.272694369857
0.36091609468
0.40151540498
0.37141558256
0.36847880075
0.375212873453
0.351641251804
0.393667219193
0.106137762392
0.156798983274
-0.0019006011212
0.0403495484323
0.107877308191
0.333209454286
0.309380740273
0.300454895715
0.257908086145
0.279145384233
0.262791687107
0.276605381238
0.0706993317931
0.190186454388
0.0735208002999
0.117401477601
0.0727110485519
0.115773922327
0.0712178652534
-0.0900343567069
-0.121576878543
0.128681988167
0.0516708635309
0.0583151430426
0.134078348843
0.215964571304
0.252815564782
0.276092728357
0.230434964014
0.235733025236
0.258658392513
0.210477139456
0.351249116
0.359198360752
0.339809796091
0.381434692255
0.33380890836
0.354955007209
0.378005559018
-0.0288980372517
0.0155352288652
-0.089114280354
-0.0413191377872
0.364122713243
0.372863998196
0.341981106576
0.385328502685
0.358404541404
0.349869787054
0.388853261879
0.345951497061
0.316163459481
0.301572034602
0.356906232359
0.302899052702
0.344920761236
0.334534582931
0.290124584002
0.298333529904
0.297426212153
0.337507297008
0.323003687937
0.331747857524
0.331609561398
0.249102417815
0.262711288948
0.230144049116
0.230027864876
0.26190256755
0.254340775982
0.205204774979
0.299239566191
0.311475323233
0.323657405772
0.303704306334
0.307641766717
0.312290941632
0.299212995819
0.311059532339
0.328637934928
0.346215612004
0.33800551463
0.326817203825
0.321750684973
0.33644352343
0.192731183645
0.222087402301
0.236944255579
0.196048009407
0.205726730133
0.22852958592
0.173703221404
0.139367281451
0.217311453112
0.217184422149
0.194203140866
0.183582232354
0.187467717117
0.152009246456
-0.337167692924
0.0682298263755
-0.0247913123268
0.0889693224035
-0.266354898442
-0.458980902068
0.329540945296
0.320882664093
0.337117277521
0.322215742607
0.33380431666
0.327725341774
0.318400299274
0.370750180178
0.380538897072
0.375555713895
0.382427619845
0.371598395432
0.37498279036
0.381553066833
0.40297238202
0.404839492041
0.408333448611
0.406165405945
0.403646556939
0.40286022517
0.405427713567
0.410556237041
0.408844369191
0.411432056078
0.409013313739
0.408763524725
0.412962306581
0.391308301816
0.383218645514
0.382861688318
0.393699544478
0.390302360011
0.395294797829
0.384068364112
0.405919029557
0.403632520884
0.410856931691
0.408375047846
0.405532759599
0.401060340324
0.410903439169
-0.0487579835111
-0.0580086635302
0.0621673929483
0.117355003708
0.0623758106861
-0.147160123252
-0.0568210666586
-0.284936607884
-0.0414372675552
0.14312022219
0.0661144577641
0.0306507525034
-0.163610046647
0.0775174639768
-0.243366962897
-0.317931549578
0.0681056810996
-0.0237513425339
-0.248782695009
-0.277387272051
0.0441999313103
-0.59379791322
-0.145797370059
0.00109636220009
-0.590942986454
-0.133883849944
-0.629756399655
-0.473441996322
-0.556634251787
-0.128785696824
0.123101179714
0.181199098361
0.167000085471
0.22295639912
0.172007341568
0.0956791929121
0.171910692157
0.423742810144
0.423495114673
0.426788963888
0.42453617326
0.422186603627
0.425133806713
0.426508531797
0.412443263455
0.414886255069
0.408836495267
0.406363895323
0.412984873018
0.403339113871
0.415386058771
0.421850487226
0.424340846827
0.422080628274
0.423618674007
0.422133845563
0.421768204052
0.423087074902
0.424964954141
0.423039771409
0.424651343015
0.426603273496
0.423700899373
0.425067505877
0.425579645843
0.417726109817
0.418982948253
0.418285288434
0.413456050919
0.414876694233
0.413784146808
0.4114549431
0.410930704894
0.415426990336
0.411944693149
0.415546414006
0.425532791241
0.424682482788
0.424266306428
0.421670459406
0.411750811363
0.421456477933
0.418095351852
0.41572027677
0.415386741737
0.424724067737
0.421542160722
0.421918891401
0.416437426181
0.419907638679
0.419019209421
0.416692787767
0.423247298386
0.424702788
0.425054735354
0.419621416705
0.419378436675
0.418050962787
0.419824345322
0.424705993019
0.424396155809
0.424098965782
0.419921661766
0.418897023706
0.420815657881
0.41869271672
0.382654372653
0.398424997534
0.40229678781
0.415739907601
0.38802356211
0.393286597644
0.411653824612
0.425752216323
0.426076469608
0.425700865827
0.426138895548
0.425406323762
0.426764573469
0.426553178357
0.424572070872
0.426491803954
0.42712779927
0.425515616166
0.426169282961
0.425987982768
0.427760358727
0.42698999235
0.424656674368
0.425972322701
0.42685702643
0.425745983674
0.427525195075
0.426819830629
0.424222740024
0.424284214329
0.425464844066
0.42360634127
0.426015322938
0.424972931214
0.408809675075
0.418318190062
0.414992101887
0.410991269756
0.407757033935
0.398384739875
0.411911212235
0.397339517221
0.410460811046
0.4185042949
0.414384323058
0.410142487579
0.417390871878
0.412799195604
0.406867312736
0.409294178304
0.399015777609
0.407340304305
0.394184747659
0.410500141942
0.398333041442
0.405433466627
0.380089254191
0.330037297723
0.264204561936
0.316944680033
0.256463621411
0.202856639539
0.214824668644
0.23524606434
0.265884903263
0.277240613003
0.223232026818
0.131317087853
0.185561480598
0.263389295784
0.223038944694
0.164920335783
0.123282630263
0.178111460636
0.213548160112
0.159269149355
0.168983744202
0.202039587653
0.398851166343
0.405084932612
0.396484871276
0.391389568599
0.406519968325
0.402621681809
0.39597157496
0.0847540347928
0.420447770095
0.423891059146
0.424330057352
0.420078092936
0.423776865329
0.419810202059
0.420648837603
0.419211993475
0.419650627986
0.416153825851
0.422967613839
0.421415640427
0.423081768371
0.419928049181
0.415040626551
0.417209764452
0.423402670815
0.419899982062
0.419608379825
0.424175263427
0.423214963641
0.416834755094
0.420464793477
0.422524610587
0.419049271559
0.414409022319
0.419108582535
0.417105571885
0.417159694162
0.408798353218
0.413537192933
0.414917912281
0.412831234371
0.400565870385
0.404546206864
0.409541968496
0.417240946287
0.409285180485
0.415749339098
0.411774977482
0.407647087389
0.40408071808
0.414954210412
0.422206487758
0.417336484082
0.418540649521
0.41504250314
0.415929421451
0.412192215933
0.4180855446
0.354383849756
0.329578523793
0.356779956579
0.321414001811
0.33108578443
0.34957850219
0.34908505359
0.327448469786
0.322972162066
0.356820253017
0.275567638302
0.228438624022
0.195418042309
0.183304092804
0.210332960921
0.263449938695
0.220896732893
0.253570159998
0.296557970534
0.263910450089
0.311445789141
0.349834779586
0.329374579616
0.305443561849
0.356667018782
0.321141112812
0.267441797975
0.307762769508
0.29788223837
0.255887158501
0.288934450479
0.297810939169
0.27897914923
0.30701366946
0.269211723706
0.329611513024
0.297565835661