/*--------------------------------*- C++ -*----------------------------------*\
| =========                 |                                                 |
| \\      /  F ield         | OpenFOAM: The Open Source CFD Toolbox           |
|  \\    /   O peration     | Version:  2406                                  |
|   \\  /    A nd           | Website:  www.openfoam.com                      |
|    \\/     M anipulation  |                                                 |
\*---------------------------------------------------------------------------*/
FoamFile
{
    version     2.0;
    format      ascii;
    arch        "LSB;label=32;scalar=64";
    class       surfaceScalarField;
    location    "0.01";
    object      phi;
}
// * * * * * * * * * * * * * * * * * * * * * * * * * * * * * * * * * * * * * //

dimensions      [0 3 -1 0 0 0 0];

oriented        oriented;

internalField   nonuniform List<scalar> 
85682
(
-3.0928745818e-08
-8.93431440904e-09
6.62527683701e-09
-9.21993210896e-09
6.28169174083e-09
-2.59172252413e-08
-1.26203811102e-08
7.76315286864e-09
-2.97549998623e-08
-8.09065381794e-09
-6.9375969227e-09
-2.95004168086e-08
-1.41309784463e-11
-2.89417812453e-08
5.02254700901e-10
7.87785131858e-10
-6.54240218976e-09
7.54471093418e-09
-2.51159863943e-08
-1.31507197135e-08
-8.25296982288e-09
-6.97665282999e-09
-7.13730577222e-11
2.2167046377e-10
8.22186533794e-11
5.07843943298e-10
-2.47060662864e-08
5.16898015038e-10
7.17152786451e-10
-2.47600205058e-08
-6.26869174239e-09
6.75165434491e-10
7.45735934992e-10
-2.66801152797e-10
-1.12151697069e-09
-4.85855020025e-09
-3.70154707264e-10
-1.40446296189e-09
-3.45637927008e-10
-1.18092637464e-09
-5.38186477424e-09
-4.23019305251e-10
-1.99762784348e-09
2.73727969045e-11
-5.58908813938e-09
-1.14416040742e-09
-2.26176723905e-09
-3.9701817942e-10
1.97646619116e-09
-1.09664041843e-10
4.74592803577e-10
-4.64222165492e-10
-1.8771725138e-09
-3.55229180419e-10
-1.54547403835e-09
-3.82209476767e-11
-5.0738555541e-09
-1.16965310721e-09
-1.31220964409e-09
-1.76421718191e-10
-4.48650616559e-09
-4.14638828474e-10
-1.29794240423e-09
-4.68996798513e-09
-1.65199617707e-09
2.13384767159e-09
-2.07207223611e-10
-1.95743360565e-09
-4.33443469001e-10
1.381500661e-10
-5.21958895304e-09
-1.1604239275e-09
-4.04428534541e-10
-4.79829875807e-09
-1.20930888508e-09
-2.5413435441e-09
5.9182464939e-09
9.44881285431e-09
-6.52210501733e-09
-1.42396293168e-08
1.09146939597e-08
-1.22423203792e-08
-5.86967270791e-09
-1.52608774746e-08
1.5143532994e-08
-1.352116109e-08
-6.85287152265e-09
8.81539925514e-09
7.95761100247e-10
1.22214516972e-08
-1.30724587705e-08
7.6663745804e-09
-8.16285369208e-09
-7.60582368055e-09
-1.33772007911e-08
7.73552959519e-09
-7.98451474915e-09
1.66345031157e-08
7.17343827666e-10
9.35802770962e-10
-7.34529102826e-09
-3.50155883396e-09
-3.82019614904e-09
3.8693587935e-10
6.15559762595e-10
5.68534805259e-10
5.26423017497e-10
-1.0674477655e-09
8.14285375226e-10
8.2084050383e-10
-3.82359318923e-09
-3.4172758027e-09
1.75896426956e-08
-1.03757842088e-09
-1.15189972444e-09
5.88441685534e-10
1.44597065585e-09
-1.01773471302e-09
-1.02555675759e-09
5.17104868046e-10
-1.04573969728e-09
3.69584563072e-09
-5.62990773994e-10
-3.31296198921e-09
1.54771754149e-10
-1.2307974151e-09
-9.16361390583e-08
7.69202958694e-08
-4.85630967209e-08
1.35816745235e-08
1.33911190748e-08
1.36840748586e-08
-3.80708745293e-08
6.05999453054e-08
-4.02848171017e-08
-1.18823940134e-07
-4.07254498559e-08
7.20574859997e-09
-8.34544868499e-09
-2.02239557409e-08
7.69207608755e-10
7.56916744169e-10
6.98170719528e-10
-6.38916617294e-09
7.68489193118e-10
7.63861961611e-09
-8.75373617067e-09
-1.3311929504e-08
-2.12548513173e-08
5.43523626946e-10
-2.00180810882e-08
7.28893651818e-10
4.28764571436e-10
6.58028718692e-10
-1.36390484723e-08
-2.06931555712e-08
-7.88300664801e-09
1.21139968311e-10
-1.30618412035e-09
4.09669298394e-09
-9.12623538826e-08
-4.14342690606e-08
-1.19537303126e-07
-4.25450429198e-08
2.15783885861e-08
-8.82017693509e-08
1.37751283888e-08
1.33912272177e-08
1.37019476641e-08
2.81541349773e-09
-3.39481837932e-08
-8.94404509622e-08
1.32606984501e-08
1.3359135759e-08
1.35581643933e-08
-3.4610139573e-08
-1.99361864558e-08
-1.17655061846e-07
-3.84938756363e-08
6.37131916437e-10
-1.16430432876e-07
-3.67850307036e-08
1.83189792629e-09
-1.51568806222e-09
-1.44311782563e-11
-4.75954157764e-10
-2.46442566837e-10
-9.49901809249e-11
3.41432670907e-10
-5.68747550963e-10
-7.20735496752e-10
2.91714834492e-09
-5.67058975052e-10
1.86610764815e-10
7.0588867094e-10
-1.41759560147e-10
-1.83680896039e-10
-1.97720582287e-10
5.13452248333e-10
-3.70267512381e-10
-1.71710358402e-10
-4.26782141056e-10
-1.60728235464e-10
-1.77263779407e-10
6.51495534723e-10
-1.81532013804e-10
-6.56562501335e-11
-4.33028727322e-11
1.08958781696e-10
4.5635441506e-10
5.72894411806e-09
-9.08666537729e-09
3.13615260171e-09
1.03179514682e-09
1.08391354135e-09
1.11015303395e-09
1.13991232157e-09
-4.60055999854e-09
9.30498098056e-09
4.15093291048e-10
2.90212986258e-09
-5.69995108357e-09
-5.60092186657e-09
-1.64788303962e-10
1.09662646164e-09
1.05341150885e-09
3.51390140803e-09
8.44540947771e-09
-7.09196283112e-09
4.34811176015e-09
3.89201609944e-09
1.16947999607e-09
1.14883544243e-09
-4.42374469119e-09
1.1954468369e-09
1.17837136527e-09
3.54248890569e-09
8.47492333915e-10
9.33416399719e-10
3.88406667378e-09
-5.94566451288e-09
2.95480836855e-10
1.99060606765e-10
-1.61088250882e-10
-1.8129470207e-10
-1.52158505081e-10
-2.07479392308e-10
-2.36493739975e-10
-1.44482044546e-10
-1.73314568603e-10
-1.65463966712e-10
-9.78060651147e-11
-1.14012782892e-10
5.96607804166e-09
-8.7123925858e-09
6.99234501461e-09
9.25040340349e-10
8.38066637835e-10
1.04235391304e-09
-4.87936691999e-09
9.64024122473e-10
-7.54263482215e-09
-6.19854869625e-09
1.16008560509e-08
5.51819154569e-10
5.31096013349e-10
8.07606246608e-09
-7.31173038062e-09
-7.62747886566e-09
8.15106524358e-09
1.16812318022e-08
-6.45152029773e-09
7.15739758656e-10
6.46145216679e-10
-6.20938963612e-09
1.12750522601e-08
5.94696401243e-10
6.40644751317e-10
6.54132618335e-10
-4.99467653833e-09
7.74990355553e-10
-6.67232648393e-09
1.5704462525e-08
5.71996859245e-10
6.5757596916e-10
6.37875495603e-10
7.99452593589e-09
1.614834774e-08
-6.86450552231e-09
1.57103053688e-08
5.46557340599e-10
6.04796816487e-10
5.47266874411e-10
-5.33798890991e-09
5.26293033556e-10
6.88317545408e-09
-8.0269904603e-09
6.57231018719e-10
6.26524894268e-10
5.89332537492e-10
-5.75987860914e-09
5.1692029279e-10
7.59447264226e-09
-8.49387650781e-09
6.5570181592e-10
6.55005282983e-10
6.51300619859e-10
-7.38163591887e-09
-1.33092402502e-09
3.27926768357e-11
-3.47520202213e-10
-1.64995717696e-10
-1.03465872324e-09
-2.73447002464e-10
1.41538360962e-10
2.95521758311e-09
-2.25765346551e-09
-1.36183139449e-10
-2.2777082526e-10
3.87471942425e-10
-1.8159243328e-11
5.9576040037e-10
-1.16358912877e-10
2.8428825658e-09
-1.43155803701e-09
1.69900920046e-10
-5.61592839348e-10
-4.01602918182e-10
-1.25575248284e-09
-3.84947859207e-10
4.41519126167e-11
-5.78662840509e-11
8.62113658303e-10
1.7759147248e-10
-1.3359076568e-10
-2.00222548044e-10
-1.56361771692e-10
-7.94278433131e-10
-2.00736569123e-10
-9.99912771604e-11
-2.28908102912e-10
-1.91418126417e-10
-6.2126397537e-10
7.71954488832e-10
-2.00046457292e-10
-9.24000776811e-11
-4.73649921207e-10
-1.87167367416e-10
-1.21171104122e-10
9.5822128193e-10
-2.28772100957e-10
-9.10795875813e-11
-2.96369652781e-10
-1.01147534156e-10
-4.87843514959e-11
-1.18049558665e-10
1.01175846799e-10
-5.71180633701e-11
-1.24673335041e-11
-1.61979134083e-10
1.07991943777e-10
-5.19171770447e-11
-5.32164366879e-10
-2.95134085259e-10
2.48342276703e-11
5.35087141035e-10
8.0028386566e-10
-5.3290692511e-10
3.98509356048e-10
8.82863435103e-10
9.77356714274e-10
-4.61590659381e-10
-8.72099697452e-10
7.62230908491e-11
5.86417891513e-10
-2.36537400352e-10
-5.59764257891e-10
9.81139950886e-10
1.31499603317e-09
-8.70346779549e-10
1.10719955257e-10
-1.99380147765e-10
1.94742315026e-10
-1.49387042556e-10
1.34160525937e-10
-2.344318577e-11
-2.32154638058e-11
8.40498621393e-10
-7.81489524503e-10
-4.85310950028e-10
-1.74124516909e-09
5.55568856536e-11
-1.0414671294e-09
2.12992547574e-09
-1.35545765173e-09
-9.91738566157e-10
-5.19859015956e-10
9.76731483879e-10
-1.34403352606e-10
-1.58198872761e-10
-4.33256184007e-11
-1.768364064e-10
-5.39143467225e-10
-1.08378915627e-10
1.9464471832e-10
9.29337907406e-10
-5.01381453319e-10
-2.50896297974e-10
-7.96044654155e-11
1.10993587647e-09
-5.20626293663e-10
-1.76092027708e-09
7.49818212311e-12
2.17660896999e-09
-8.69964433944e-10
-8.76633986411e-10
1.09825697505e-09
-3.6653201475e-10
-4.16532111956e-11
1.66084469727e-10
-1.8566244468e-10
-9.98560955843e-11
-1.27124914342e-10
3.16140402637e-11
-1.75883316647e-10
-4.48134547192e-11
-7.13115033629e-11
-5.52078886481e-10
1.5608738001e-10
6.04555114884e-10
3.90427442744e-10
-5.27679812442e-10
4.94386905774e-10
-4.10565940172e-11
9.58850736802e-10
-8.41981264703e-10
1.32433702345e-10
5.91029464714e-10
-5.3692766316e-10
9.54583664152e-10
3.62472209238e-10
-8.26279774252e-10
3.39771308696e-10
-2.04443390434e-10
-1.72491022862e-10
-1.44130746149e-10
-1.76600922079e-10
-1.30590267035e-10
6.44558867717e-10
-5.33017784151e-10
6.65836245758e-10
-3.34972409049e-10
-5.94563246886e-10
-6.69088345976e-10
-5.70728537334e-10
8.80444728e-10
5.769425244e-10
-7.05201196506e-10
1.08981520764e-09
-9.10669729328e-10
9.68970860986e-10
-5.82020128963e-10
-3.0730575364e-10
-9.31199868135e-10
-7.69390570822e-11
-1.57079087082e-10
-1.63715491256e-10
-3.95355923914e-11
-4.35304524122e-10
3.31005201509e-10
-8.05217266072e-11
-1.05029040543e-09
-1.35254942847e-10
4.28390471549e-10
-4.27257979239e-10
1.18441307818e-09
-4.49742582228e-10
9.84900976476e-10
7.95023781708e-11
2.52741840807e-09
-1.07292702089e-09
-1.20213857633e-09
1.73353651258e-10
2.90850481212e-09
-4.43815464113e-10
-1.11419747422e-09
2.94208327545e-09
1.13600197531e-09
-1.15361495045e-09
-7.40493319499e-11
1.36673570086e-09
-5.6633855582e-10
2.15082963999e-11
2.56442318358e-09
-9.35702169604e-10
-4.77677012947e-10
2.98452758759e-09
-1.00356734613e-09
-1.12594394105e-10
1.42933306596e-09
4.3078193783e-10
-3.80791236185e-10
-3.39696963368e-09
1.36114968469e-10
1.16901114401e-09
3.84068691284e-09
-1.09161539489e-09
1.15507612299e-09
-1.05360953716e-09
4.2527299982e-10
1.57529599193e-09
-4.35133822267e-10
-1.59319370712e-10
4.2975284552e-10
1.34474505434e-09
-1.23075047573e-09
1.78601130208e-10
-1.29472922202e-09
-4.35003738408e-10
1.43713580519e-09
-3.35837298582e-09
1.71419146975e-10
3.78014980901e-09
1.50641163815e-09
1.94574932192e-10
4.31505006205e-09
1.23924803678e-09
-1.13899380255e-09
1.74861691817e-09
4.30465216081e-10
-4.09223024753e-10
-2.23463871466e-10
4.18056066947e-10
-4.03427767056e-10
1.20920666615e-09
-1.15902667999e-09
-4.51096236283e-10
1.55267191617e-09
1.98564245444e-10
4.24352033377e-09
1.68433083384e-09
-1.87656916284e-10
4.12850365992e-10
-1.23311240538e-09
6.04165228736e-11
9.83363464118e-09
-6.2787864606e-09
9.12349438948e-09
-1.44402620035e-08
6.87073388294e-09
-5.31305924674e-09
1.1793336956e-09
1.18825928229e-09
1.20993914558e-09
-5.20878264629e-09
1.02697142213e-08
1.25123582848e-09
1.29588199752e-09
1.26470117997e-09
-1.0208160733e-08
-7.40905884114e-09
1.09044756035e-08
1.38605425372e-09
1.32704437452e-09
-4.04557744699e-09
1.45924210898e-09
1.37720127979e-09
6.34994216401e-09
9.830815966e-09
-1.44520538352e-08
-5.34868418324e-09
9.62017383443e-09
-1.46245504661e-08
-5.13262436368e-09
1.23723422652e-09
1.26262167299e-09
-4.05278093348e-09
1.25628041198e-09
1.2973658618e-09
-1.36996300549e-08
-4.85579134774e-09
1.71150166233e-09
1.55143197274e-09
1.68888342808e-08
1.0543163904e-08
-6.1068058723e-09
-1.51321976509e-08
-4.86653401547e-09
1.39577632896e-09
1.47184928425e-09
-1.10157390756e-08
1.41504406629e-08
1.51285300607e-09
1.64027029445e-09
1.59798838379e-09
1.74609383204e-09
-3.5939606633e-09
-1.27305252817e-08
1.15447330684e-08
-1.5633853914e-08
-4.67913181037e-09
1.5629109227e-08
-1.53931144247e-08
-4.83977436717e-09
-3.50680998396e-09
1.70009186521e-08
-1.06241845997e-09
-2.95184941046e-09
4.25177718757e-10
-4.74054301012e-10
3.36831572785e-09
8.92886724821e-10
7.20331694841e-10
-2.89743506568e-09
-5.71245527464e-10
7.48112794403e-10
-6.22128755954e-10
4.37519535617e-10
-2.50675043029e-09
-3.74671906426e-10
-9.50662832531e-10
3.49425046959e-09
-3.11807313369e-09
-4.11096602401e-09
1.17301492183e-09
4.50269002091e-09
-3.71313445729e-09
3.96801754863e-09
-8.64081791183e-10
-2.72426222544e-09
3.23524027161e-09
7.70183167291e-10
-2.77773685657e-09
-2.35846669535e-09
2.14164984223e-09
-7.17171707597e-10
-1.76567955676e-09
5.05005478772e-10
-3.92574930324e-10
7.86362058867e-10
-2.46881511378e-09
7.69838178592e-10
-5.98759707465e-10
4.56521752742e-10
-3.31620223701e-10
-2.02742763214e-09
8.08729569928e-10
-6.40238715677e-10
1.21132837534e-09
-6.57473783198e-10
6.25652006034e-10
-9.99290510019e-10
1.83579899921e-09
-6.43589022721e-10
1.54921341291e-09
-6.4270504836e-10
-1.31289607955e-09
-5.3000442839e-10
1.65833855114e-09
1.51597403576e-09
6.1873369381e-10
-8.74365860264e-10
-8.41361088417e-10
1.9252829583e-09
-5.59923768919e-10
-6.72697703441e-10
-1.41089725154e-09
-4.12127240964e-10
1.60482156752e-09
6.46156667972e-10
-1.17438293677e-09
-7.13725842233e-10
-6.74036954304e-10
-1.0591077777e-09
-4.52721271152e-10
-1.89703992383e-09
-5.89878086237e-10
6.57970321307e-10
-9.67848182152e-10
-6.25507886802e-10
2.01149540596e-09
-6.73873660093e-10
7.09231173607e-10
-2.3569966785e-09
7.22828098392e-10
-5.96299227308e-10
-5.03155614254e-10
6.16868978715e-10
-7.73690961984e-10
-7.587476113e-10
-4.78029399202e-10
-7.89882599932e-10
2.64322425901e-08
-9.10279751101e-08
-3.11782844081e-08
-9.15906874192e-08
-3.15548700518e-08
4.70246442375e-08
-2.0370414573e-08
-1.17146455662e-07
-3.318898164e-08
3.80424713049e-08
-1.18167329723e-07
-3.57425291679e-08
4.0762082325e-11
8.47487357663e-10
9.11165755821e-09
7.56069031152e-09
-2.8599782598e-08
-6.96968370021e-09
-5.88894755959e-10
-4.87600266805e-11
9.85015950469e-10
-6.40591599376e-09
-8.37383120999e-10
1.1268068143e-09
-9.01713028877e-10
-1.07519936696e-09
2.57318643882e-10
-5.9326590066e-09
2.04899760807e-10
-5.76502091453e-09
6.16350451408e-09
7.75351192034e-10
-2.99511774342e-08
-5.36553800631e-09
8.84192946254e-09
-2.93092927975e-08
8.74144548078e-10
-2.97534099355e-08
2.96908703783e-10
-3.41952205583e-09
-7.29777467265e-10
1.24796957873e-10
1.04805379188e-09
-6.20479991096e-09
4.09891048997e-10
-3.15375628357e-09
2.18994638533e-10
-6.04817963709e-09
-3.78073367706e-10
3.88163479213e-10
-2.51571835145e-09
-2.67425110082e-09
-2.41196307277e-09
-1.50123885135e-08
-3.69983808367e-09
1.070535858e-08
7.17428901854e-09
4.31106777267e-09
-3.47848938951e-09
-5.67284402754e-09
1.51806567119e-08
1.48750947773e-08
1.50682219746e-08
2.94445457695e-08
-9.13477103138e-08
-2.37386400643e-08
-1.42141235291e-08
1.00526281305e-08
4.64615659306e-09
-4.6893843552e-10
-3.71555898396e-09
1.82840121022e-08
-8.75621270292e-08
1.41391981441e-08
1.41722774722e-08
1.40894678044e-08
-2.69579953488e-08
-3.53977401699e-10
-2.38532485498e-10
5.67799468916e-10
-2.98365777935e-11
5.45470203739e-11
-1.63191791767e-08
-1.34739674632e-08
1.21860235342e-08
3.57064738189e-09
-2.27915097455e-09
1.63156160165e-08
-2.38326413438e-10
-1.5850449665e-09
-2.98703103563e-10
3.08510550083e-10
1.81356373279e-09
9.54104806963e-09
1.17650858714e-07
1.1653905271e-07
-1.25475215298e-07
8.82174591387e-08
-2.76402097247e-10
3.17975211881e-11
-1.38962965855e-10
2.95926384356e-11
1.05506013465e-08
-1.39639065027e-08
-6.61306463373e-09
9.22139708204e-09
5.50007147705e-09
-4.69510001979e-09
1.18965213634e-07
1.14804821168e-07
1.16356075688e-07
-1.42839917093e-07
-1.40972297568e-08
9.06566589954e-09
5.91838309411e-09
1.48540843973e-08
-5.19031302104e-09
8.28643152975e-11
-9.023428977e-10
-3.21246078846e-10
1.18148807642e-09
-7.46155215921e-11
-1.9802757592e-10
2.72642878165e-10
3.13170351537e-09
-1.64280831171e-09
-3.38898259484e-10
-2.70405094909e-09
1.0737922536e-09
4.80261371465e-10
9.27297896316e-09
-1.56786892304e-09
6.31066324085e-10
6.97513305987e-10
6.26338082488e-10
6.8583176832e-10
-6.47916896668e-09
1.96303238341e-10
2.86095792823e-10
2.83754544942e-10
2.31867234959e-10
-1.47791172075e-09
-1.5566843642e-09
-1.50809809077e-09
-3.22012925026e-10
1.0467557319e-09
-9.03231766432e-10
-1.87404559542e-10
-8.39299631174e-11
1.27810560334e-10
1.26357348952e-08
7.29741346766e-10
6.38718068029e-10
6.70773440246e-10
6.96961929605e-10
-7.02934924164e-09
1.28383946754e-10
1.93488648727e-10
1.9205722717e-10
1.10388913919e-10
3.06089170288e-10
-1.34808843909e-09
-1.35468186444e-09
1.79838965663e-09
-4.07520449637e-10
7.42481564008e-10
5.69419167763e-10
2.90289282177e-10
-1.10834525472e-10
-3.62288615408e-12
-1.75831901278e-10
-6.0085865927e-10
1.4982888909e-08
7.69613813559e-10
8.93012611876e-10
8.85362869359e-10
8.33661100821e-10
-3.09564150138e-09
-2.98672330296e-09
-2.89710732224e-09
4.45428901093e-10
3.84366177645e-10
4.7312019814e-10
3.86718686922e-10
-7.34212953663e-09
1.34701111073e-10
-1.19150312994e-09
-2.38409124174e-10
1.37807929268e-09
1.22112258858e-09
-2.10800686625e-10
-1.28237529969e-10
1.64675651891e-10
-1.61379015682e-08
-2.39614625271e-10
7.37601762638e-10
8.04297449825e-10
7.42236563202e-10
7.26331179247e-10
-7.83243382184e-09
1.35326535312e-09
1.98462182079e-08
7.24065344132e-10
7.09549335598e-10
7.18542852166e-10
7.75671634375e-10
-7.58797550766e-09
5.57149157313e-10
-5.05040547466e-10
6.78395087768e-10
4.23241952917e-11
7.55874720385e-10
7.53980387994e-10
8.50353552341e-10
7.02483366258e-10
-7.63973336311e-09
1.82529006948e-08
-4.34804544069e-10
-7.78862733723e-10
5.24340361241e-10
8.59577233716e-10
-8.05275956364e-10
2.23715805373e-09
-1.73188575572e-09
8.41651327827e-11
7.34856372451e-10
3.81461720784e-10
-1.19273953468e-09
5.96503900816e-11
-6.01798493905e-10
6.18568924532e-10
-1.49179306369e-09
9.78764755408e-10
2.19096809569e-10
-1.16550480736e-09
-1.08430932428e-10
-1.27214043688e-09
-9.22973550799e-10
-4.52070950366e-10
6.8354029443e-10
6.15559109598e-10
2.08872846667e-10
-1.27212938212e-09
3.52612630651e-10
2.72392760972e-10
6.89169760645e-10
-2.50918990923e-10
-2.86371770459e-12
5.71080955698e-10
-1.15849905644e-09
-6.55450450317e-10
5.98346657028e-10
8.18198554558e-10
2.07550171111e-09
-1.1331664519e-09
5.86395129748e-10
-1.61046318103e-09
5.64435313581e-10
-4.82703123009e-10
-1.21742206882e-09
4.17048304864e-10
6.42142717024e-10
6.77180162899e-10
-3.10076733056e-10
2.15950153861e-09
-8.8249916524e-10
-1.69369890481e-09
3.33170550076e-10
-7.21755398507e-10
-8.2832097634e-10
1.58521895846e-11
2.6611817259e-09
-1.0022532089e-09
3.90884628608e-09
4.55579878892e-11
-3.45444952633e-09
-1.12697399651e-09
5.77133816989e-10
2.5578988622e-09
6.13872677509e-10
-5.46435012516e-10
4.02933648827e-09
-8.53753985948e-10
-3.53748007525e-09
3.42996845299e-10
6.5209460294e-10
-6.33194662794e-10
-7.48295615302e-10
2.09121341659e-10
-7.34596828667e-10
2.60494342389e-09
3.99502800962e-09
-5.45273795566e-10
-8.42940682555e-10
-4.74576266603e-11
-3.5616189251e-09
1.17076583141e-07
1.18457080621e-07
-1.46693841731e-07
-9.06683336624e-08
7.25023183992e-08
-4.47476546407e-08
1.39584771011e-08
1.41679975148e-08
1.40313673079e-08
-3.14123113982e-08
5.65038485895e-08
-3.67856539835e-08
-3.40354290471e-08
-1.38950932109e-08
-1.93968342116e-08
8.64085142553e-09
6.87096931847e-09
2.38775997672e-08
-6.09749124298e-09
-9.09231914419e-08
1.38685522572e-08
1.37111303802e-08
1.36037687859e-08
-3.45096221018e-08
1.04143183909e-09
-6.20865500854e-10
-9.2268924446e-10
4.32214247533e-11
4.45392064538e-09
-7.20010685804e-10
8.84746018167e-11
6.49504389862e-10
4.67638548204e-09
-6.65027615798e-10
1.3661035741e-10
4.37281062564e-09
-3.56004294636e-08
-8.92231108872e-08
1.40683651774e-08
1.3849172211e-08
1.40103479374e-08
-2.77425118675e-08
1.65471482202e-08
3.74033842914e-09
-2.98298328113e-08
-3.15994616671e-08
9.58489546212e-12
-1.27821348915e-09
2.01543106382e-10
1.64367772602e-09
5.44751362964e-11
1.47522641031e-09
3.16685883198e-11
-1.09704543326e-09
4.9133684368e-11
-2.05574066344e-10
-3.09516954331e-11
7.34036235322e-10
7.02915731206e-11
-3.09469379926e-10
3.83051824439e-10
-1.34280737442e-10
3.08640836782e-11
1.80200659006e-09
1.03577401895e-10
-1.08745983606e-09
2.17286135102e-10
5.47605310708e-10
6.04429015228e-12
3.45151521298e-10
2.14186278381e-10
3.50327584214e-09
-2.01877063994e-10
-3.12313356079e-09
-1.45616162826e-09
-2.29299182592e-10
-1.84459704385e-10
1.63159920508e-09
-2.49053053037e-10
-1.92317686962e-10
-1.40471250272e-09
2.61043275662e-10
-3.68152604473e-09
-4.31723334271e-10
5.31913178835e-10
4.08693424077e-09
-3.306969221e-09
4.63792017741e-10
-1.39352959036e-10
-1.29492991874e-09
-3.00901107876e-10
3.86949953538e-09
5.96128047488e-10
1.83115236916e-11
5.89804510607e-11
-3.88110102336e-10
-2.85310364576e-10
1.45513279422e-10
-9.73279336116e-10
-5.61027357608e-10
1.53503152275e-11
-1.02481125245e-10
-7.35896307901e-11
-6.6181957004e-11
8.09700700047e-13
-3.26558110308e-11
-4.15640909255e-10
-5.99109446456e-10
-4.11586401313e-10
-1.78580912799e-11
-3.93180815388e-09
-9.33994585483e-09
6.51124684296e-09
-2.74099278175e-09
1.1867187561e-09
1.11247045657e-09
1.16443475483e-09
9.53236447936e-09
5.23560660992e-09
-2.92305241021e-09
-4.38963309781e-09
-6.13506458331e-09
4.13782924683e-09
1.00794674749e-08
1.15080699294e-09
1.09934265131e-09
1.14321680893e-09
-3.38737634936e-09
-7.11370829987e-09
8.8785482741e-09
1.11328559642e-08
-2.30582403179e-09
1.21173521284e-09
1.20523945901e-09
1.19767749422e-09
-3.06078272665e-09
-3.41710571903e-09
1.05802049099e-08
9.87036240774e-10
1.00291810121e-09
1.0802592976e-09
-1.0338371146e-10
4.11423463136e-10
1.26761915254e-10
-2.66459853021e-10
-1.6834155989e-10
-4.08700649825e-10
1.24723460984e-10
5.57680976036e-10
-1.61811583483e-10
-1.11891923118e-10
-2.5665495131e-10
-1.63942394948e-10
-9.14962604271e-11
5.52182883932e-10
1.45408755606e-10
-1.61453034499e-10
1.43170470909e-08
4.42066289968e-09
1.07025973476e-09
1.06498417918e-09
9.61852699605e-10
-3.81666686478e-09
8.56366528505e-09
1.55815119108e-08
8.86625599991e-09
6.36880518385e-09
-5.60986275831e-09
4.61175941258e-09
9.99398530746e-10
7.02578636056e-10
8.38424999185e-10
1.92372207546e-08
-4.05985449915e-09
1.51979066281e-08
9.07416991982e-10
6.24953973732e-10
7.47941416462e-10
-8.38559189768e-09
5.15240036723e-10
5.15664057835e-10
5.89800188521e-10
2.02693638054e-08
2.02144331304e-08
-6.84287841804e-10
-1.52799538923e-10
1.62655780014e-10
-9.16930540469e-11
7.66124773185e-10
1.3569127562e-10
7.07514631448e-10
-1.62347798972e-10
-1.23181478813e-10
1.48111517624e-10
-1.44539575892e-10
-1.52801851769e-10
8.52846159597e-10
-1.45340717812e-10
-2.64563629131e-10
-6.74798762399e-10
1.88659188044e-11
-2.83395836788e-09
3.66802866614e-11
3.17396544866e-09
-2.33032025869e-09
-8.35330038619e-11
2.26429247345e-09
-4.22225887433e-10
-1.3805066435e-09
-6.15431179822e-10
-4.90078780188e-10
3.0061092463e-11
-1.16240911065e-10
-8.41457376286e-10
9.54707835354e-11
1.99054539588e-09
2.52999005602e-10
3.44081992582e-11
-1.99232118919e-10
-8.24224010267e-11
1.12466008022e-10
-2.18680687218e-09
-1.28613599802e-10
2.52972027124e-09
2.37017189333e-10
-2.1511381889e-10
-7.62748232894e-10
-3.06147468581e-11
9.24551196419e-10
1.82222383476e-10
-5.19466343354e-13
2.34430966461e-09
-4.45586698247e-11
-6.78026915825e-12
-1.25397129662e-09
9.88848927054e-11
1.69429328397e-09
-4.77948654533e-10
-9.93782944904e-11
1.30243545733e-10
8.18679365512e-10
7.32988267997e-12
8.37751565986e-11
-6.46743396499e-10
-2.63040919833e-10
1.02831994629e-09
9.87087854598e-11
-3.15123887678e-10
-7.10269226922e-10
-4.18456262133e-10
2.35176555846e-10
1.7161823438e-09
2.98191801367e-10
3.70763055169e-10
-6.5642903719e-10
-5.18118634837e-11
-1.67363487413e-09
2.18619285408e-09
-3.15810060132e-11
-5.39997002628e-10
-2.13795259032e-10
-5.13309359829e-10
6.92872879375e-10
-1.27753129554e-10
-4.80770081551e-11
2.12639746529e-09
-6.76332056753e-10
-2.04007607726e-11
-4.54464842249e-10
-7.37867164544e-11
2.24419635177e-10
3.299541252e-09
-2.89617081125e-09
-1.34539430646e-09
-2.08861825346e-10
1.50450526403e-09
-2.68808076317e-10
8.32888180703e-11
-9.87111888413e-10
-3.06310860678e-09
1.73677111296e-10
3.44168938479e-09
-2.63887173509e-09
-1.17703034964e-09
3.66595006456e-09
2.56584160016e-10
-2.7542714169e-09
2.24383650789e-10
-1.25758828148e-10
-2.30989408258e-10
-1.55654186908e-10
2.0306106165e-10
2.93327070579e-09
-2.05344793816e-10
3.00549266063e-10
-2.34505285441e-10
1.11726107287e-09
-8.64355269561e-11
3.70449888324e-10
-7.4129911067e-11
-1.08931179897e-10
3.27329754031e-12
-2.52467304333e-09
2.69093159579e-10
2.20952887284e-09
-5.75750750401e-11
-3.43059310936e-10
6.44098683139e-11
-3.03687172057e-10
9.52455174731e-10
6.93011975495e-10
-5.26165832494e-10
-2.04237945637e-10
9.33788044604e-10
-2.34461648612e-10
-1.11367597717e-09
-3.99550218434e-10
-2.91364190357e-10
5.43432733091e-10
1.44510976102e-10
-2.24724500993e-10
-4.98645776918e-10
4.49782838607e-10
1.29381172586e-09
-7.90346533661e-10
1.10578136244e-10
8.54924286619e-10
-5.05200288766e-10
-2.98861988514e-10
2.46529837066e-10
-1.50600615723e-10
1.79487957534e-10
-2.6843103129e-10
-1.09375004788e-11
-1.68887006052e-10
1.5541847077e-10
-3.28122548642e-11
-1.54932737824e-10
-1.60637908177e-10
2.70705659762e-10
-8.10431002153e-10
-1.10407768338e-09
-4.91856649372e-10
1.56008877401e-09
-5.10021161864e-10
5.4432482012e-10
6.88253197863e-11
-3.25965074204e-10
-2.28202982244e-10
-8.4277898939e-11
-4.33335170725e-10
8.95958031043e-11
-2.18722731177e-10
-2.82875677438e-10
-2.77219557669e-10
1.07876060731e-10
-1.95163735919e-10
-7.91693262104e-13
-2.18414072377e-10
5.55690765281e-11
-2.24471354464e-10
-5.15718442832e-11
-1.46098683132e-11
2.48662429989e-10
6.00986495643e-11
-7.38136278163e-11
-2.23596991582e-10
-1.13504284595e-11
-3.1957065325e-10
-8.32408747535e-11
7.39535568427e-11
-3.95570126002e-11
-1.92711879759e-10
8.66671859549e-11
-1.65327011076e-10
-1.91734784254e-10
1.32635033917e-10
-1.01622263112e-10
1.36351560933e-10
9.33250203395e-12
-1.7669662985e-10
1.23279512042e-10
-1.81197782962e-10
-1.38544912878e-11
-1.79142750277e-10
5.97895085787e-10
-7.02685389878e-10
4.15558185168e-10
1.12159658602e-10
1.63039811135e-10
-4.65773619795e-10
1.70113988397e-10
-4.3967227093e-10
4.51932038049e-10
-3.81169656536e-10
-1.85987474084e-10
-2.39175592563e-10
-1.78247562232e-10
1.02861125627e-10
1.49352399751e-10
4.12453071243e-10
-2.79202286919e-10
-1.55845046665e-10
-3.78729811537e-10
-1.62640064706e-10
-3.26842531789e-11
4.23450060283e-10
-2.83099102312e-10
-1.15174003352e-10
-1.29023076673e-10
5.24235739568e-10
-8.81530849239e-11
-1.1436079802e-10
1.09509912633e-10
-1.73459981704e-10
9.90338221778e-11
7.14678500355e-11
-1.86590587604e-10
-5.77248385796e-11
-1.71389843973e-10
-7.43891048161e-11
9.39729304039e-11
-1.76426763238e-10
1.34608738244e-10
-1.32423095466e-10
-1.71882966025e-10
1.47439924939e-10
-1.21463805048e-10
-1.71578100818e-10
-1.61690948322e-10
-1.73771468707e-10
4.64251284189e-10
-5.52011272909e-10
1.20243025465e-09
-8.6359377489e-10
-4.06923505823e-10
4.60478298419e-10
-7.15623525754e-10
-1.26195513582e-09
-1.16739119572e-09
-4.86561101086e-10
1.46257343731e-09
-1.6778711407e-09
4.86564350839e-10
2.11989417129e-09
-6.47431190652e-10
-8.67866571518e-10
-1.2382656031e-09
-6.26990215175e-10
1.51276036957e-09
-4.39360788816e-10
1.51844605257e-10
1.25775203671e-10
-9.81346498554e-11
1.68721519937e-10
-1.6879383387e-11
1.67239009151e-09
-4.48360594074e-10
-5.46767625806e-11
3.07874273002e-09
-8.40168082015e-10
1.50690935521e-09
-2.8682869387e-10
-1.68595799091e-09
-4.0449632489e-10
1.70086673128e-09
9.97382128986e-12
-9.22389192672e-10
-5.49887472499e-10
-6.14175045635e-10
1.46339956203e-10
5.81788241795e-10
4.86958034852e-11
-1.36285032805e-10
4.42609392194e-10
1.89847732595e-11
-7.81228733857e-11
2.28680388811e-10
3.43380063121e-10
-1.89271878141e-09
-4.33918804965e-10
-4.22779593869e-10
2.21176070533e-09
4.45959048755e-10
4.14470365828e-10
1.93191534396e-09
-1.55953949133e-09
-3.72066041035e-10
5.42686846236e-10
6.32776844188e-10
3.03473461005e-09
-5.82048361131e-10
5.20687435819e-10
2.56557950635e-09
6.86320247324e-10
-2.09373845283e-09
4.44575283779e-10
-1.54669340382e-09
2.29915144912e-09
-4.11288801364e-10
3.0554007514e-09
6.82010605984e-10
-1.73231985797e-10
7.64507218227e-10
1.96798364062e-11
1.55163354219e-10
-9.63695474624e-10
1.33039560338e-10
-5.16111010967e-11
1.04404962278e-09
-1.61782463542e-10
-1.192252533e-10
-1.64874731831e-10
6.73510594389e-11
8.75398324215e-11
7.42641978293e-10
-4.77683277565e-10
-2.72011594405e-10
2.53800137385e-09
4.43122844253e-10
4.7061499159e-10
6.66167140269e-10
-6.40149271855e-10
-2.63097726513e-09
4.0831405987e-10
2.96121729581e-09
-4.47179846348e-10
-3.58657801277e-09
1.33768598417e-10
7.27257322002e-10
4.08021014227e-09
-4.58141668256e-10
7.0138138761e-10
3.98393502712e-10
2.74901903006e-09
-1.33589898771e-11
3.32576724553e-10
4.17724251269e-10
2.15316190365e-10
1.60425260803e-10
2.596846801e-10
-1.82241327443e-09
-1.89385509498e-10
4.3881904326e-10
2.06762376299e-09
-4.4670456231e-10
1.68901280973e-09
3.89918017499e-10
2.58910229354e-09
-7.28129439929e-10
-4.17924735873e-11
3.1596406791e-09
3.10152582477e-09
2.14257601175e-09
2.82610990322e-11
1.5100622756e-10
2.74918934177e-09
-3.70523916171e-09
-6.45693398842e-11
4.16934524409e-09
-1.86599171493e-09
-4.83694855873e-10
1.89771987533e-09
-7.15717757414e-10
-9.30022522437e-11
2.75972185782e-09
5.16055572028e-09
2.47138812012e-08
5.40428469941e-10
5.89174530935e-10
5.52769802247e-10
-4.39878012952e-09
-8.45910448748e-09
2.50659938185e-08
4.94924228953e-10
7.2256607786e-10
5.95451591682e-10
2.46117978847e-08
8.12608977278e-09
7.41018297109e-09
-6.54738191291e-09
5.55548344301e-09
4.3908136746e-10
5.88550293623e-10
4.5238519356e-10
4.72078070107e-10
-4.61883830082e-09
8.06344657183e-09
7.06749703745e-10
7.04791536111e-10
6.76476146289e-10