/*--------------------------------*- C++ -*----------------------------------*\
| =========                 |                                                 |
| \\      /  F ield         | OpenFOAM: The Open Source CFD Toolbox           |
|  \\    /   O peration     | Version:  2406                                  |
|   \\  /    A nd           | Website:  www.openfoam.com                      |
|    \\/     M anipulation  |                                                 |
\*---------------------------------------------------------------------------*/
FoamFile
{
    version     2.0;
    format      ascii;
    arch        "LSB;label=32;scalar=64";
    class       surfaceScalarField;
    location    "0.01";
    object      phiHbyA;
}
// * * * * * * * * * * * * * * * * * * * * * * * * * * * * * * * * * * * * * //

dimensions      [0 3 -1 0 0 0 0];

oriented        oriented;

internalField   nonuniform List<scalar> 
85682
(
-3.05599287544e-08
-9.55815400581e-09
6.6653239042e-09
-9.76289050191e-09
6.32330922972e-09
-2.55094558685e-08
-1.26825959397e-08
7.80410774339e-09
-2.94776398727e-08
-8.7373956163e-09
-7.53571456611e-09
-2.91183681418e-08
-6.53591994282e-12
-2.86420648808e-08
5.14754025315e-10
8.03693839177e-10
-7.13879607091e-09
7.59825152232e-09
-2.47947272427e-08
-1.32165377579e-08
-8.81106424607e-09
-7.49141685931e-09
-6.91979494547e-11
2.30733831501e-10
8.4601417228e-11
5.15633040922e-10
-2.4326648255e-08
5.29614150243e-10
7.29358448941e-10
-2.44619960969e-08
-6.81844978881e-09
6.89959621224e-10
7.59021736187e-10
-2.69288343703e-10
-1.26750669211e-09
-4.78370667514e-09
-4.61300223009e-10
-1.32769087972e-09
-3.3698720906e-10
-1.3149335699e-09
-5.31047678819e-09
-5.38300556059e-10
-1.93573456713e-09
3.89763744883e-11
-5.52158475687e-09
-1.29326351098e-09
-2.20226004932e-09
-5.25532064358e-10
1.91252094485e-09
-1.22116512231e-10
5.79280537068e-10
-5.7084282082e-10
-1.80474648013e-09
-4.67000617031e-10
-1.48889841658e-09
-2.39834182547e-11
-4.99187336248e-09
-1.29367911292e-09
-1.43310141177e-09
-1.68839566073e-10
-4.38242774055e-09
-5.29026913579e-10
-1.41456280128e-09
-4.60222852231e-09
-1.57402180998e-09
2.07165460263e-09
-2.20059079052e-10
-1.89435174709e-09
-5.48109450159e-10
1.52525010516e-10
-5.14577202887e-09
-1.303525481e-09
-5.27465380127e-10
-4.72289663629e-09
-1.34144258078e-09
-2.80296547687e-09
6.15094556371e-09
9.4819320408e-09
-6.49618248858e-09
-1.42955846805e-08
1.09553526448e-08
-1.2441666368e-08
-5.62598902316e-09
-1.53015789567e-08
1.53898142179e-08
-1.35748344513e-08
-6.89875500232e-09
8.85280204933e-09
5.4008974716e-10
1.19296532826e-08
-1.31320827592e-08
7.70344720902e-09
-7.855713941e-09
-7.87090699333e-09
-1.34413971972e-08
7.77316380187e-09
-8.32013526594e-09
1.62968676176e-08
7.31264395167e-10
9.53701708129e-10
-7.35691829905e-09
-3.53902452147e-09
-3.85451948631e-09
3.3589341484e-10
5.48800599685e-10
5.1046753185e-10
4.67556743791e-10
-8.2311809184e-10
8.21006339204e-10
8.3017010332e-10
-3.84846237681e-09
-3.43909244078e-09
1.77477444852e-08
-1.10717909945e-09
-1.15770987972e-09
5.87965796256e-10
1.50511827581e-09
-1.01764984212e-09
-1.0311198361e-09
5.19032287318e-10
-1.05441944856e-09
3.6075646229e-09
-5.73190630449e-10
-3.23337873077e-09
1.62964460114e-10
-1.33683099355e-09
-9.1915046143e-08
7.56738003603e-08
-4.74780389031e-08
1.36460798953e-08
1.34549660926e-08
1.37484802799e-08
-3.9530461409e-08
5.93782627306e-08
-3.91999049459e-08
-1.19106619726e-07
-4.21595963578e-08
7.66695296523e-09
-8.39070457366e-09
-1.99695310963e-08
7.79935597273e-10
7.68858973272e-10
7.07255430394e-10
-6.86772826434e-09
7.79766599131e-10
7.67955985614e-09
-9.22632968165e-09
-1.33772581176e-08
-2.09190970756e-08
5.49445721096e-10
-1.96951031685e-08
7.37406262053e-10
4.34186364133e-10
6.68654367588e-10
-1.37091640503e-08
-2.04386203384e-08
-8.37058695387e-09
1.29647052908e-10
-1.41470977953e-09
4.0200563924e-09
-9.15375363172e-08
-4.35006928469e-08
-1.19815607652e-07
-4.45732357779e-08
2.05926988345e-08
-8.8488130057e-08
1.38263738857e-08
1.34475002775e-08
1.3756272135e-08
3.67577352376e-09
-3.4230154133e-08
-8.97143575458e-08
1.33212726692e-08
1.34178273927e-08
1.36182771416e-08
-3.54940706893e-08
-1.89916510509e-08
-1.17950863673e-07
-3.93463652631e-08
1.52579516433e-09
-1.16715352467e-07
-3.70432236493e-08
1.89293359521e-09
-1.56366105832e-09
4.21361773331e-11
-4.76862120735e-10
-2.65725509929e-10
-6.27961086128e-11
3.62124979296e-10
-4.91685480754e-10
-7.299479911e-10
2.96641445341e-09
-6.13827143634e-10
1.73512594166e-10
7.55548391407e-10
-1.27764535715e-10
-1.8080072933e-10
-1.92635603524e-10
5.66443692771e-10
-4.25097577829e-10
-1.70752664752e-10
-4.76260234809e-10
-1.54433188571e-10
-1.75513070082e-10
7.07746595303e-10
-1.78791979726e-10
-3.66657901519e-11
-7.81093250221e-11
1.05120077037e-10
6.39772945032e-10
5.83800973598e-09
-9.12307533797e-09
2.94482767056e-09
1.03817452543e-09
1.08920909292e-09
1.1156403857e-09
1.14415086787e-09
-4.70872950684e-09
9.34469934944e-09
2.39304638086e-10
3.08477048815e-09
-5.73527102756e-09
-5.63539868039e-09
-4.27767609146e-10
1.09961016696e-09
1.05896764468e-09
3.76382965854e-09
8.47870566138e-09
-7.21090657781e-09
4.07517250832e-09
4.06770049639e-09
1.17304884509e-09
1.15428490958e-09
-4.45851623433e-09
1.19818782397e-09
1.18250484807e-09
3.26279431074e-09
8.52543677457e-10
9.37831105168e-10
3.69317422527e-09
-6.05487281529e-09
3.41623552167e-10
2.09756441193e-10
-2.07381231656e-10
-1.90371641325e-10
-1.5363194954e-10
-2.09809216892e-10
-2.85051635018e-10
-1.45209625124e-10
-1.74876361945e-10
-1.64896886951e-10
-1.46656393431e-10
-1.18577059483e-10
6.15005021613e-09
-8.74714497674e-09
6.77448543484e-09
9.30143828758e-10
8.44427593903e-10
1.04669230385e-09
-5.05725305307e-09
9.69821430232e-10
-7.24292648984e-09
-6.46374391073e-09
1.13042625886e-08
5.57100759367e-10
5.35164665924e-10
8.10675150177e-09
-7.50338269065e-09
-7.40061246417e-09
8.18868089449e-09
1.14677488509e-08
-6.70983466416e-09
7.19026960982e-10
6.49533707887e-10
-6.39315501059e-09
1.104925779e-08
6.01645873087e-10
6.46821725446e-10
6.58418593736e-10
-5.24953274172e-09
7.79615072216e-10
-7.00803117112e-09
1.53816437159e-08
5.77508046972e-10
6.65977696508e-10
6.4465131193e-10
8.03044817575e-09
1.5889514153e-08
-7.20286867794e-09
1.54559381274e-08
5.52811615433e-10
6.12321425946e-10
5.48415711483e-10
-5.67227315283e-09
5.29108122276e-10
7.28332494155e-09
-8.06902908787e-09
6.67781755203e-10
6.35659987064e-10
5.96711267018e-10
-6.17589041871e-09
5.22669192725e-10
7.63717269868e-09
-8.8977366125e-09
6.64665790954e-10
6.6517460723e-10
6.60014900086e-10
-7.79224577428e-09
-1.37876252498e-09
1.00321549413e-10
-3.45955483313e-10
-1.25901809407e-10
-1.08709526401e-09
-2.71465051683e-10
1.55313801997e-10
3.00813232038e-09
-2.29254908644e-09
-8.24580615197e-11
-2.36904437723e-10
4.10923869269e-10
2.3678719999e-11
6.19258104305e-10
-6.20977448815e-11
2.87717316615e-09
-1.48528667599e-09
1.87767716361e-10
-5.73767000303e-10
-3.57630857721e-10
-1.29953823633e-09
-3.8649995908e-10
9.01388769089e-11
-4.07055979625e-11
9.09224294592e-10
1.56239559308e-10
-1.09768221043e-10
-1.96828200425e-10
-1.26982088377e-10
-8.4865066562e-10
-1.96100030758e-10
-6.73347180998e-11
-2.25520952417e-10
-1.87413019911e-10
-6.60632909428e-10
8.16046245281e-10
-1.98377071818e-10
-7.89988713173e-11
-5.16379704764e-10
-1.86173882239e-10
-1.16322338672e-10
9.97984435452e-10
-2.2775589206e-10
-7.04881298207e-11
-2.96920707684e-10
-7.38904340611e-11
-1.63212233153e-11
-1.46873233849e-10
1.12023427476e-10
-8.73894017102e-11
1.75275884983e-11
-1.85311836461e-10
1.01558525548e-10
-7.64218315736e-12
-4.85456320907e-10
-2.94359436831e-10
2.46843037282e-11
5.75946326208e-10
7.43778061941e-10
-5.82474867965e-10
3.99932350556e-10
8.34422419279e-10
1.01153892141e-09
-4.06867544341e-10
-9.16998116396e-10
7.93119653515e-11
6.20051404133e-10
-1.87314520733e-10
-5.9842365814e-10
1.02373827919e-09
1.25331962804e-09
-9.25781456145e-10
8.13381864103e-11
-1.60105791339e-10
1.91548939279e-10
-1.87038095175e-10
1.28934815325e-10
-6.80908017584e-11
-2.48731642977e-11
7.97702268197e-10
-7.00635813164e-10
-5.57212142982e-10
-1.67767904722e-09
6.00962327317e-11
-1.10503194731e-09
2.05822978355e-09
-1.28125912645e-09
-1.04748006135e-09
-5.85098906789e-10
9.02244798642e-10
-9.9655889823e-11
-1.97412106901e-10
-3.22628230794e-12
-2.10382080825e-10
-4.62022265156e-10
-1.05374143087e-10
1.97037422752e-10
8.67078312861e-10
-4.33923098399e-10
-1.86740364009e-10
-8.09299225687e-11
1.03453073215e-09
-5.73114980454e-10
-1.70420049796e-09
5.78825149416e-12
2.11244374765e-09
-9.49299516101e-10
-9.41860048249e-10
1.06342811514e-09
-4.60209292603e-10
-8.19771393539e-11
1.79970310375e-10
-2.02066877014e-10
-1.02723827689e-10
-1.44473396989e-10
6.83151055737e-11
-1.9858192295e-10
-4.46230521815e-11
-1.17446093362e-10
-5.53564920157e-10
1.57976585487e-10
6.24809563599e-10
4.38914447601e-10
-5.49347914409e-10
4.94969392563e-10
5.4715172328e-12
9.84811349313e-10
-8.78509536191e-10
1.34757465919e-10
6.20654760129e-10
-5.67427190262e-10
9.71204694213e-10
4.13701513653e-10
-8.52935193912e-10
3.79596049385e-10
-2.46511636098e-10
-1.73412667031e-10
-1.55843762885e-10
-1.76361654051e-10
-1.3452652194e-10
6.97584470291e-10
-5.35829642641e-10
6.79687774955e-10
-3.90925061585e-10
-6.06036651454e-10
-6.72187182415e-10
-6.29380634188e-10
9.44301062941e-10
5.79559347106e-10
-7.57413964872e-10
1.15008808052e-09
-9.10314476035e-10
1.02512292069e-09
-5.8482816265e-10
-3.69355542708e-10
-9.40383329103e-10
-1.15843119852e-10
-1.76136773391e-10
-1.90462350118e-10
-9.37942276781e-11
-4.3973740936e-10
3.33485833633e-10
-2.34656930723e-11
-9.88342497378e-10
-1.4056005912e-10
5.06356850986e-10
-5.021313637e-10
1.122167279e-09
-5.2234687979e-10
9.15367380746e-10
8.43252032389e-11
2.45951855188e-09
-1.14527518764e-09
-1.29110758004e-09
1.79181578352e-10
2.82603521984e-09
-5.12143004911e-10
-1.1964772674e-09
2.868893645e-09
1.06544888301e-09
-1.09066459847e-09
-7.74026414097e-11
1.30048461031e-09
-6.60268385585e-10
2.65042160903e-11
2.50422050961e-09
-1.02190558325e-09
-5.5520256627e-10
2.91924253021e-09
-1.09917181744e-09
-1.17254009689e-10
1.37604201197e-09
5.17726630568e-10
-4.69260896009e-10
-3.33308178366e-09
1.446510499e-10
1.26891311566e-09
3.77391945125e-09
-1.20175142404e-09
1.24684490501e-09
-1.15411584582e-09
5.14832110779e-10
1.51547302461e-09
-5.34619831085e-10
-1.6718555936e-10
5.12292696413e-10
1.28091620541e-09
-1.3271868241e-09
1.85932149228e-10
-1.22594578514e-09
-5.25597069943e-10
1.36313812045e-09
-3.28543852026e-09
1.80988180389e-10
3.70450322846e-09
1.44052574454e-09
2.04096241355e-10
4.24711216648e-09
1.34569154135e-09
-1.25675664704e-09
1.6908499075e-09
5.26679821724e-10
-5.131811532e-10
-2.34761999306e-10
5.22290775442e-10
-5.11633067337e-10
1.32520167463e-09
-1.28458455681e-09
-5.45593586811e-10
1.48949509859e-09
2.08976198561e-10
4.1692734368e-09
1.62157143964e-09
-1.9920268868e-10
5.17199314549e-10
-1.35457636397e-09
6.73399407757e-11
9.86752377196e-09
-6.17881549382e-09
9.37243201334e-09
-1.44910615653e-08
7.10925084298e-09
-5.27482021246e-09
1.18228443296e-09
1.19148466051e-09
1.21114733175e-09
-5.09238299937e-09
1.05090837708e-08
1.2541907473e-09
1.2963066332e-09
1.26613431713e-09
-1.02492018764e-08
-7.57972884153e-09
1.10698051731e-08
1.388224516e-09
1.3296184989e-09
-3.93311483267e-09
1.46197995112e-09
1.37980698142e-09
6.50694987881e-09
9.86733202061e-09
-1.4504590677e-08
-5.30680965956e-09
9.7896931213e-09
-1.46734668307e-08
-5.01640144873e-09
1.24094246799e-09
1.26493133241e-09
-4.01575920404e-09
1.25924978362e-09
1.2996043507e-09
-1.39272443557e-08
-4.5888900967e-09
1.71469201499e-09
1.55271444506e-09
1.71105237168e-08
1.05727979049e-08
-5.93676341534e-09
-1.51801612951e-08
-4.67601349469e-09
1.39651721492e-09
1.4731250389e-09
-1.10561933109e-08
1.43050172219e-08
1.5156882794e-09
1.64509943952e-09
1.60101535647e-09
1.75082731199e-09
-3.41576381572e-09
-1.28539059205e-08
1.15979971751e-08
-1.56735404669e-08
-4.41703438206e-09
1.57913926204e-08
-1.54385403713e-08
-4.64689658734e-09
-3.2563616239e-09
1.71499709605e-08
-1.06512862494e-09
-2.99208898521e-09
3.79266778306e-10
-4.15728102371e-10
3.41533588288e-09
8.9541160149e-10
6.74113433481e-10
-2.94545487243e-09
-5.37078223332e-10
6.88181091599e-10
-5.76967087232e-10
3.94983579368e-10
-2.55522949831e-09
-3.28316609264e-10
-9.57873781023e-10
3.54682235624e-09
-3.17223836198e-09
-4.16217681817e-09
1.1849821777e-09
4.55814664665e-09
-3.76219827687e-09
4.02153898819e-09
-8.67740185474e-10
-2.77947538931e-09
3.28722006481e-09
7.7115103976e-10
-2.83531247017e-09
-2.41542100546e-09
2.18544365151e-09
-7.16806869387e-10
-1.81427014331e-09
4.799312915e-10
-3.67323338506e-10
7.8720070311e-10
-2.51123809446e-09
7.32512034015e-10
-5.7104969857e-10
4.23884064949e-10
-2.96435240754e-10
-2.07716698147e-09
7.81332318327e-10
-6.21528817522e-10
1.27196715371e-09
-6.51980066987e-10
6.2504277656e-10
-9.88883294408e-10
1.90270860999e-09
-6.28662793825e-10
1.61300453086e-09
-6.43216377018e-10
-1.36643361737e-09
-5.14785630057e-10
1.71485782821e-09
1.56756113178e-09
6.1915617104e-10
-8.65841055349e-10
-8.23214710436e-10
1.98363845056e-09
-5.53621154213e-10
-6.72597291397e-10
-1.45610614198e-09
-3.96769341783e-10
1.64804571847e-09
6.45670386631e-10
-1.22537238347e-09
-7.13091292624e-10
-6.64193164404e-10
-1.10766583457e-09
-4.46766011662e-10
-1.95898007953e-09
-5.55252412831e-10
6.55303724033e-10
-9.4837949269e-10
-6.007373668e-10
2.06574518513e-09
-6.73271808626e-10
7.09887422428e-10
-2.40778332189e-09
7.68371760668e-10
-5.9695799046e-10
-5.16372929355e-10
6.17740453377e-10
-8.17412417944e-10
-7.67134464953e-10
-4.81874917658e-10
-8.07948985532e-10
2.72685000169e-08
-9.13017351002e-08
-3.08790112647e-08
-9.18411965672e-08
-3.06580041579e-08
4.7729635564e-08
-2.1264609785e-08
-1.17437277398e-07
-3.22783151171e-08
3.87865180619e-08
-1.18454675946e-07
-3.54317305712e-08
8.36444445377e-11
8.71877333103e-10
9.15505477665e-09
8.18804111814e-09
-2.84760960367e-08
-7.61407298292e-09
-5.96275508e-10
-4.10321834131e-11
1.14015062458e-09
-6.38014590926e-09
-9.8685471699e-10
1.27007565062e-09
-9.16391883057e-10
-1.22995243486e-09
2.71174777168e-10
-5.8807796266e-09
2.19307481094e-10
-5.70706070822e-09
6.78808502233e-09
7.87536231853e-10
-2.98015996108e-08
-5.99287033578e-09
8.8896527451e-09
-2.91010086849e-08
8.88223314191e-10
-2.95367578123e-08
4.30718696211e-10
-3.4435793686e-09
-8.98729983379e-10
1.31616990614e-10
1.19797728413e-09
-6.16732932492e-09
5.51252868014e-10
-3.10600715328e-09
2.32480090925e-10
-6.00524620144e-09
-5.10930776165e-10
5.15626639006e-10
-2.46688736091e-09
-2.6354610017e-09
-2.357267954e-09
-1.50610999237e-08
-3.72934532865e-09
1.07492464161e-08
7.17937067995e-09
4.29779946337e-09
-3.43752067026e-09
-5.91395943787e-09
1.52266474684e-08
1.49277473692e-08
1.51176435719e-08
2.96809389658e-08
-9.16187731607e-08
-2.3488401418e-08
-1.42605077463e-08
1.00995525723e-08
4.70268325779e-09
-4.92201755193e-10
-3.75355573981e-09
1.79024664791e-08
-8.78393345943e-08
1.41879451051e-08
1.4221485524e-08
1.41414525393e-08
-2.72954187405e-08
-3.53271853012e-10
-2.39139565412e-10
5.64583410654e-10
-3.1328377315e-11
5.92030703455e-11
-1.63532134659e-08
-1.34445627848e-08
1.22528740034e-08
3.34702562031e-09
-2.02604161127e-09
1.63233133166e-08
-2.98839472619e-10
-1.57865602648e-09
-2.96321339973e-10
3.6882358754e-10
1.8111020326e-09
7.19010645257e-09
1.17935866062e-07
1.16833378699e-07
-1.23141172379e-07
9.04614893682e-08
-2.77613482221e-10
3.4665115896e-11
-1.41664881815e-10
2.56457191436e-11
1.0492588735e-08
-1.4021286251e-08
-6.54373499114e-09
9.26743383417e-09
5.77198256271e-09
-4.95576724537e-09
1.16011970786e-07
1.15096746518e-07
1.16655955091e-07
-1.4531785189e-07
-1.41586171254e-08
9.11043785577e-09
6.26050479457e-09
1.47572505615e-08
-5.52838737019e-09
1.39792941402e-10
-9.24704097973e-10
-3.2247057137e-10
1.2073877808e-09
-5.43559908132e-11
-2.10379434423e-10
2.85389591289e-10
3.16353979646e-09
-1.64676664637e-09
-3.12498583288e-10
-2.7250002014e-09
1.07701742538e-09
4.45295499807e-10
9.26903425645e-09
-1.57037731609e-09
6.35097036694e-10
7.00558476217e-10
6.27897715337e-10
6.92457586699e-10
-6.49565162151e-09
1.86745560712e-10
2.83448477775e-10
2.69939339098e-10
2.32420736467e-10
-1.47792917979e-09
-1.56802695877e-09
-1.51917228255e-09
-2.77047328417e-10
1.04669878446e-09
-8.97282313408e-10
-1.86154099512e-10
-1.10542450091e-10
1.56423959221e-10
1.26521799446e-08
7.38186108741e-10
6.40420347299e-10
6.75535790492e-10
7.01472560978e-10
-7.03491470624e-09
1.14901647819e-10
1.64677652347e-10
1.74115973117e-10
8.64641122819e-11
4.12668243577e-10
-1.38156324758e-09
-1.35899620588e-09
1.82328151168e-09
-4.08697598098e-10
7.44230122173e-10
5.61098875779e-10
3.09038577257e-10
-1.19159452602e-10
1.95524400988e-11
-1.77907854915e-10
-4.41323985559e-10
1.50162751121e-08
7.68123667322e-10
9.05285924153e-10
8.88898237432e-10
8.37704659944e-10
-3.11759956158e-09
-3.01971899381e-09
-2.91566833964e-09
3.98495886848e-10
3.43692228586e-10
4.18877970208e-10
3.39122825882e-10
-7.36733322733e-09
1.91490884138e-10
-1.20899840646e-09
-2.33208623502e-10
1.39799756714e-09
1.21521247811e-09
-2.07462931505e-10
-1.61482373402e-10
2.00830407161e-10
-1.60942642207e-08
-4.68381885837e-10
7.41344325133e-10
8.06019308918e-10
7.45317696936e-10
7.27382970974e-10
-7.81717321535e-09
1.62786106113e-09
1.98772456675e-08
7.23970648909e-10
7.09799883432e-10
7.16963410653e-10
7.78697714237e-10
-7.59943562077e-09
7.57292770974e-10
-5.1609542407e-10
6.88368856275e-10
6.74498024404e-11
7.57556425679e-10
7.55639468582e-10
8.57194309801e-10
7.00785144887e-10
-7.64482602488e-09
1.83561934919e-08
-3.90326163977e-10
-8.13998614311e-10
5.28412439312e-10
8.20370923589e-10
-8.66734284339e-10
2.18081640928e-09
-1.68594901607e-09
8.15201078152e-11
7.62685923725e-10
3.46953402322e-10
-1.19892162784e-09
8.92196308588e-11
-6.38033794683e-10
6.21146085813e-10
-1.49399485128e-09
9.85932102863e-10
2.29444575924e-10
-1.16503666342e-09
-1.13094495457e-10
-1.2757668481e-09
-9.49640150703e-10
-4.61521737303e-10
6.85695727838e-10
6.16669049533e-10
2.02356732045e-10
-1.2766267196e-09
3.89989572298e-10
2.75043158981e-10
6.92889082936e-10
-2.82530961362e-10
3.54289000112e-11
5.74253037028e-10
-1.16416103418e-09
-7.00117794484e-10
6.01851467199e-10
7.8817495183e-10
2.06410417436e-09
-1.14191993428e-09
5.93753553027e-10
-1.60326798926e-09
6.36830808315e-10
-5.50026562542e-10
-1.2220997796e-09
4.63250336412e-10
6.47299233344e-10
6.73652915606e-10
-3.5129685817e-10
2.11646504212e-09
-8.89025530921e-10
-1.65952711669e-09
3.3271436029e-10
-7.9405068808e-10
-8.98276066121e-10
1.23265882076e-11
2.60779127248e-09
-1.1012338517e-09
3.85148094976e-09
5.15709619679e-11
-3.39860646528e-09
-1.13483461239e-09
5.85270863904e-10
2.54761029872e-09
6.94381858936e-10
-6.21571936891e-10
4.00783480297e-09
-8.61179050902e-10
-3.52112963727e-09
3.46696507801e-10
7.60271487682e-10
-7.30795281184e-10
-7.51825663654e-10
2.08683052238e-10
-8.15805270679e-10
2.56498563097e-09
3.94278677687e-09
-5.52961138075e-10
-9.56122738229e-10
-4.219748e-11
-3.51579974313e-09
1.17370333573e-07
1.18740892421e-07
-1.53906055577e-07
-9.09364502343e-08
7.18657642989e-08
-4.42956930002e-08
1.40177557553e-08
1.42290458637e-08
1.40909796321e-08
-3.2929920795e-08
5.59052469038e-08
-3.63305755053e-08
-3.55905719296e-08
-1.39625750138e-08
-1.92946632366e-08
8.6824833788e-09
7.35825260624e-09
2.37132650991e-08
-6.5843878419e-09
-9.118066867e-08
1.39336474401e-08
1.37731759447e-08
1.36658128844e-08
-3.66182525999e-08
1.15311600315e-09
-6.28759559152e-10
-1.04827876598e-09
4.83574284833e-11
4.40393845179e-09
-7.23477660594e-10
9.14651122871e-11
7.66789190669e-10
4.65168987281e-09
-7.69939826494e-10
1.44540011943e-10
4.31408782435e-09
-3.77414561112e-08
-8.94850824634e-08
1.41266420616e-08
1.3906817663e-08
1.40692879119e-08
-2.86742183141e-08
1.6215733867e-08
3.99428302876e-09
-3.01807058216e-08
-3.2540620652e-08
1.91023336668e-11
-1.27784260389e-09
2.02810085196e-10
1.66014018287e-09
3.80312213615e-11
1.46934229967e-09
3.39501164922e-11
-1.09823689794e-09
5.73501685285e-11
-2.06509791995e-10
-4.10373052812e-11
7.35058784728e-10
8.3261684424e-11
-3.09302528973e-10
3.85038426424e-10
-1.40604917993e-10
3.20707241453e-11
1.80597301127e-09
1.19843515227e-10
-1.10880126495e-09
2.10626384918e-10
5.56151753595e-10
-5.63877417145e-12
3.99663190933e-10
2.07421921719e-10
3.4995732132e-09
-2.62241271824e-10
-3.13122689617e-09
-1.45656354136e-09
-2.23387462622e-10
-2.4401171741e-10
1.63634591836e-09
-2.44201559136e-10
-2.42395854678e-10
-1.40002621673e-09
3.17500778704e-10
-3.66850235054e-09
-4.9559771512e-10
6.021648779e-10
4.0874991189e-09
-3.30545066141e-09
5.24942529372e-10
-1.91023222314e-10
-1.29949715565e-09
-3.70763285533e-10
3.87986091401e-09
6.03729062974e-10
-7.28899129166e-14
7.2151535485e-11
-4.02047005514e-10
-2.87735944162e-10
1.54131519886e-10
-9.81025729076e-10
-5.62001573807e-10
1.13605734757e-11
-1.04565593964e-10
-7.09304350691e-11
-6.49257393729e-11
-6.04432514591e-12
-3.16751864376e-11
-4.19212255899e-10
-6.00213241697e-10
-4.10290660583e-10
-2.41137443432e-11
-4.11731299974e-09
-9.37717089495e-09
6.37389174297e-09
-2.62786189998e-09
1.19209798111e-09
1.11936399452e-09
1.17117881435e-09
9.57483683625e-09
5.4352280239e-09
-2.88772935988e-09
-4.57789163059e-09
-6.07232496617e-09
4.39387249382e-09
1.00201634394e-08
1.15836997501e-09
1.1079480742e-09
1.15122444175e-09
-3.64982412193e-09
-6.96635805626e-09
8.91789843027e-09
1.0992268148e-08
-2.267521059e-09
1.21761530783e-09
1.21139726026e-09
1.20478426968e-09
-3.25076883553e-09
-3.3017978947e-09
1.04401901418e-08
9.93465833072e-10
1.01018103927e-09
1.08699790439e-09
-1.56938998996e-10
3.97242000667e-10
1.77164095365e-10
-2.51969924481e-10
-1.75727839899e-10
-4.02303676212e-10
1.85433889428e-10
5.49106115978e-10
-1.70462648697e-10
-1.72292530859e-10
-2.50455263475e-10
-1.70697140178e-10
-1.4696988821e-10
5.36293531753e-10
2.01914210382e-10
-1.70026639906e-10
1.42174395686e-08
4.74793137682e-09
1.07870193264e-09
1.07195658019e-09
9.68582378681e-10
-4.14417127352e-09
8.60088616368e-09
1.54016868567e-08
8.90787249123e-09
6.78370081246e-09
-6.01877620197e-09
5.01781729127e-09
1.00755180193e-09
7.07441710263e-10
8.44049041937e-10
1.9134187211e-08
-4.45681404352e-09
1.50125962768e-08
9.11733112436e-10
6.29658356754e-10
7.52228860541e-10
-8.42207064645e-09
5.16758985631e-10
5.20987344954e-10
5.91830297297e-10
2.00879624435e-08
2.00290264527e-08
-6.68767964311e-10
-2.26314303595e-10
2.30621389047e-10
-1.00012875825e-10
7.48150051122e-10
2.03482631125e-10
6.99601614027e-10
-1.72209962313e-10
-1.90686572932e-10
2.11116185438e-10
-1.5350283233e-10
-1.63484820927e-10
8.40667879496e-10
-2.19774397105e-10
-2.67835673985e-10
-6.93529725083e-10
6.62537252527e-11
-2.8605156511e-09
1.0208068229e-10
3.20672137159e-09
-2.35678815019e-09
-2.35954839168e-11
2.29426785581e-09
-3.69899785369e-10
-1.42511037109e-09
-6.21756804211e-10
-5.06962803345e-10
6.30397683447e-11
-7.40984223686e-11
-8.48704625035e-10
1.10082250965e-10
1.98566440645e-09
2.51337497133e-10
1.13197707606e-11
-1.98034346326e-10
-9.9148135651e-11
1.32096800198e-10
-2.17665249802e-09
-1.5574479588e-10
2.53219844373e-09
2.71298350469e-10
-2.13712587454e-10
-7.62702569617e-10
-5.68357036303e-11
9.3368730081e-10
2.06579511623e-10
-3.33450838884e-11
2.35746714484e-09
-5.84475545873e-11
-1.45975923841e-11
-1.2622947144e-09
1.03941685275e-10
1.72916715444e-09
-4.77959264779e-10
-1.06447407858e-10
1.31998087589e-10
8.41281492037e-10
1.63087846094e-11
7.80646836998e-11
-6.76958438796e-10
-2.64548844707e-10
1.06638222356e-09
8.70802177157e-11
-3.16798088585e-10
-7.34623900573e-10
-4.21140061115e-10
2.49136592328e-10
1.71967387666e-09
2.79586117207e-10
3.80270315632e-10
-6.61933248515e-10
-2.31459197642e-11
-1.68380407633e-09
2.23838947099e-09
-5.76352673261e-11
-5.46738859823e-10
-2.16817040101e-10
-5.16160968839e-10
7.08461477716e-10
-1.38722548802e-10
-4.13696973104e-11
2.15039992014e-09
-6.77992255978e-10
-5.60015022894e-11
-4.61624023383e-10
-1.26039364921e-10
2.18507774264e-10
3.30523536181e-09
-2.91301988109e-09
-1.35424287184e-09
-2.03134086532e-10
1.51781981489e-09
-2.63578641312e-10
1.3280069428e-10
-1.00534665201e-09
-3.0768882766e-09
2.35972447659e-10
3.4682015666e-09
-2.66625124745e-09
-1.18897893171e-09
3.6849246142e-09
3.02570007535e-10
-2.75173286084e-09
2.20045550626e-10
-1.76588229737e-10
-2.27855270946e-10
-1.98304304799e-10
2.4743280684e-10
2.92392879149e-09
-2.39708319105e-10
3.43289287639e-10
-2.30378457693e-10
1.11824376817e-09
-1.20177338175e-10
4.23121501046e-10
-1.1424416556e-10
-1.5161048493e-10
-4.22844371517e-11
-2.52958669242e-09
2.67277466293e-10
2.21642740024e-09
-2.81768548045e-11
-3.45402972797e-10
1.03972219041e-10
-3.03569509393e-10
9.60434660149e-10
7.25045473411e-10
-5.62673133035e-10
-2.04072743306e-10
9.70674085603e-10
-2.34156666699e-10
-1.14349016872e-09
-4.00460032288e-10
-2.91531576345e-10
5.03147509941e-10
1.4814517751e-10
-1.83526803013e-10
-5.3617464149e-10
4.5223376715e-10
1.24420478983e-09
-8.34455110067e-10
1.14925357338e-10
8.14939654368e-10
-5.49998829167e-10
-2.63889305453e-10
2.45595287153e-10
-1.92515993865e-10
1.54498827266e-10
-2.35363991638e-10
-1.47492262768e-11
-2.14251366597e-10
1.22250679545e-10
2.93468043552e-12
-1.87546479897e-10
-2.0019462492e-10
2.75865479262e-10
-8.62314406064e-10
-1.05203209637e-09
-5.49131264233e-10
1.50011480432e-09
-5.65173910038e-10
5.61686477442e-10
8.24608074121e-11
-3.4618353085e-10
-2.29984677508e-10
-9.24490555601e-11
-4.58929125884e-10
9.18627994358e-11
-2.20163491441e-10
-2.8361892951e-10
-3.05181890167e-10
1.18580483659e-10
-1.97091625982e-10
-2.41217833267e-11
-2.30544324872e-10
7.65731924746e-11
-2.2668219023e-10
-5.1704122526e-11
-2.75649120867e-11
2.48187641399e-10
9.37502112725e-11
-7.96311212657e-11
-2.2532647567e-10
-4.22089444437e-11
-3.19081605264e-10
-1.09693146808e-10
1.02860507422e-10
-5.18537703664e-11
-1.96059675229e-10
1.07944169718e-10
-1.84293474683e-10
-1.94051110131e-10
1.58976638461e-10
-1.30646968797e-10
1.62345177101e-10
-1.89425768667e-11
-1.80316630611e-10
1.41668715306e-10
-1.8375695221e-10
-3.45859835067e-11
-1.82703879959e-10
6.01195485796e-10
-7.2145539804e-10
4.57618952588e-10
1.50852595753e-10
1.65959318728e-10
-4.95881744674e-10
1.72076461063e-10
-4.6121175722e-10
4.92276403264e-10
-4.13956956127e-10
-1.86035376352e-10
-2.74432234824e-10
-1.79368209495e-10
1.36369384115e-10
1.996442067e-10
3.90279079946e-10
-2.57270489506e-10
-1.62628427245e-10
-3.51319670444e-10
-2.18993513231e-10
-3.69191140263e-11
3.98522864324e-10
-2.54142830502e-10
-1.20781227324e-10
-1.36010826043e-10
5.02137700739e-10
-1.35058223767e-10
-1.02003042677e-10
1.52612996573e-10
-1.79733378074e-10
9.49161120009e-11
1.11389809867e-10
-1.89499168322e-10
-9.77274698165e-11
-1.76374925867e-10
-1.20535899702e-10
1.29898855525e-10
-1.81138086763e-10
1.7846976354e-10
-1.12235535712e-10
-1.77934681362e-10
1.20205073058e-10
-1.57829555068e-10
-1.76092256101e-10
-1.67076408159e-10
-1.78521244807e-10
5.21534058102e-10
-5.58090651923e-10
1.17582733744e-09
-8.38087460071e-10
-4.64432574525e-10
4.63774277017e-10
-7.78046121226e-10
-1.22312121246e-09
-1.13171031499e-09
-5.50778832757e-10
1.42870116533e-09
-1.65239671363e-09
4.91029760613e-10
2.08780504319e-09
-7.11693758975e-10
-8.33834926157e-10
-1.20904645513e-09
-6.82843118554e-10
1.48447697679e-09
-5.03778042076e-10
1.26348229703e-10
1.43747164759e-10
-1.46342704214e-10
1.70799374152e-10
-6.31967005176e-11
1.60087977351e-09
-5.15131331773e-10
-5.82449216711e-11
3.02294435424e-09
-9.2271496072e-10
1.48482022788e-09
-3.86266112904e-10
-1.62237363238e-09
-4.97327479763e-10
1.64911769667e-09
1.59182574907e-11
-1.01573304754e-09
-6.47069437894e-10
-5.94051680786e-10
2.01532786067e-10
5.52886970597e-10
4.50484969215e-11
-1.97058274184e-10
4.12857880849e-10
1.99962256477e-11
-8.49319475582e-11
2.045497626e-10
3.46640664064e-10
-1.87317960139e-09
-5.17301027848e-10
-4.2579325513e-10
2.185692834e-09
5.2777837662e-10
4.90978011573e-10
1.92138947514e-09
-1.54945002401e-09
-4.4891180131e-10
5.50173103449e-10
7.22563240183e-10
3.01788575562e-09
-6.65210926043e-10
5.26115635429e-10
2.54658865446e-09
7.56885203516e-10
-2.07276164466e-09
5.1531035873e-10
-1.52786894819e-09
2.28385665607e-09
-4.95791863594e-10
3.02763684852e-09
7.62217033359e-10
-2.51941407643e-10
7.51249502383e-10
1.43656590772e-11
2.14754286757e-10
-9.54144721515e-10
2.15573912288e-10
-6.17477985716e-11
1.03279401698e-09
-2.4795307936e-10
-1.29397011883e-10
-2.44818858481e-10
6.84430130747e-11
1.55566185817e-10
7.18415183347e-10
-5.6617556012e-10
-2.71242334036e-10
2.51848939859e-09
5.23011987076e-10
4.76963270389e-10
7.63738750482e-10
-7.29576727469e-10
-2.61487924434e-09
5.1012033393e-10
2.94759675919e-09
-5.42975127043e-10
-3.56112368718e-09
1.31079147718e-10
8.24274495326e-10
4.04512815285e-09
-5.48403493528e-10
7.88831564068e-10
4.91636722923e-10
2.71004161664e-09
4.54860775107e-11
3.17046747143e-10
4.23784498075e-10
2.14882493292e-10
1.84267263727e-10
2.3509444336e-10
-1.79766868525e-09
-1.91946314421e-10
5.13773763524e-10
2.02145743796e-09
-5.22361976782e-10
1.64385570932e-09
3.93814426174e-10
2.56037932249e-09
-8.20196069398e-10
-4.63666293781e-11
3.10744589458e-09
3.06009981125e-09
2.076835473e-09
3.49329463574e-11
2.76827301921e-10
2.71032405191e-09
-3.66794241535e-09
-7.14151561366e-11
4.12135661789e-09
-1.8524406999e-09
-5.87375853784e-10
1.84262351007e-09
-8.23031062122e-10
-9.70079787818e-11
2.69044230511e-09
5.65237041562e-09
2.45458107252e-08
5.42749203802e-10
5.90413428148e-10
5.57010253099e-10
-4.86683498524e-09
-8.50380258083e-09
2.4824688062e-08
4.96250832286e-10
7.32948807112e-10
6.01163821707e-10
2.43682341724e-08
8.17146046042e-09
7.96904849977e-09
-7.10748521404e-09
6.11345652121e-09
4.41937496646e-10
5.98971313296e-10
4.54068414425e-10
4.8082482624e-10
-5.17580085833e-09
8.11478581501e-09
7.2193971379e-10
7.19256958775e-10
6.89103662653e-10
5.85250043183e-10