/*--------------------------------*- C++ -*----------------------------------*\
| =========                 |                                                 |
| \\      /  F ield         | OpenFOAM: The Open Source CFD Toolbox           |
|  \\    /   O peration     | Version:  2406                                  |
|   \\  /    A nd           | Website:  www.openfoam.com                      |
|    \\/     M anipulation  |                                                 |
\*---------------------------------------------------------------------------*/
FoamFile
{
    version     2.0;
    format      ascii;
    arch        "LSB;label=32;scalar=64";
    class       pointVectorField;
    location    "0.01";
    object      pointDisplacement;
}
// * * * * * * * * * * * * * * * * * * * * * * * * * * * * * * * * * * * * * //

dimensions      [0 1 0 0 0 0 0];

internalField   nonuniform List<vector> 
45347
(
(2.50230339944e-08 1.33960718724e-08 4.16333634234e-17)
(2.25878767213e-06 -0.000265951270992 1.38777878078e-17)
(2.14702516931e-06 -0.000265430628998 4.16333634234e-17)
(2.17916003161e-06 -0.000265858958793 2.77555756156e-17)
(6.83466233196e-05 -0.000198671432132 0)
(6.82693692924e-05 -0.000198779076243 0)
(6.80787992494e-05 -0.000165399332699 0)
(9.62246190404e-08 6.10653929526e-08 1.04083408559e-17)
(4.44072194984e-08 2.34339302361e-08 2.77555756156e-17)
(1.19827895772e-06 -0.00013290480653 1.04083408559e-17)
(1.79326900756e-07 1.78919932966e-07 0)
(1.30456603187e-06 -0.000132756028589 0)
(6.71348483385e-05 -6.57148252911e-05 0)
(3.47654051994e-05 -0.000132156989747 0)
(6.77045458679e-05 -0.000132282074521 0)
(6.64844470125e-05 5.96697727237e-07 0)
(7.76393399604e-07 -6.62315780094e-05 0)
(3.43837302863e-05 -6.54505412411e-05 0)
(6.71091302443e-05 -6.58148693938e-05 0)
(3.41251977048e-05 -3.21617544373e-05 0)
(6.77820032614e-05 -0.000132159892273 0)
(6.64249157813e-05 6.70124760793e-07 0)
(3.46091930421e-05 -9.87589209472e-05 0)
(3.38770082697e-05 -3.24279498589e-05 0)
(3.44614490941e-05 -9.89410885693e-05 0)
(6.74811387089e-05 -9.89110595704e-05 0)
(6.67772555479e-05 -3.25035058044e-05 0)
(3.40728685961e-05 -6.58100472781e-05 0)
(3.34016141047e-05 5.72332990255e-07 0)
(3.4029870327e-05 -1.5466579572e-05 0)
(3.46773795494e-05 -0.00011547600554 0)
(3.47279853618e-05 -0.000132191952616 0)
(3.4630594417e-05 -0.000132338415103 0)
(3.42443891578e-05 -4.88247583688e-05 0)
(3.44973109742e-05 -8.20910663779e-05 0)
(3.34943386999e-05 7.03031616294e-07 0)
(3.41952965947e-05 -6.56582730768e-05 0)
(3.37527349349e-05 -3.25886843457e-05 0)
(3.43643191839e-05 -9.90602331058e-05 0)
(3.47025515241e-05 -0.000132247586199 0)
(3.46214884889e-05 -0.00011559833502 0)
(3.35852418622e-05 7.8177721176e-07 0)
(3.40068311314e-05 -3.22820270445e-05 0)
(3.37037358855e-05 -1.58339071537e-05 0)
(3.38198738697e-05 -1.57146107978e-05 0)
(3.38060914154e-05 -7.40902046031e-06 0)
(3.47400098931e-05 -0.000132197447541 0)
(3.43269732417e-05 -5.71244478273e-05 0)
(3.4343710849e-05 -6.55200291246e-05 0)
(3.4452151831e-05 -7.37570529772e-05 0)
(3.42910629154e-05 -6.55484044618e-05 0)
(3.38933292171e-05 -3.25113645176e-05 0)
(3.41026150895e-05 -2.37743666618e-05 0)
(3.41667286895e-05 -4.05215152629e-05 0)
(3.45293144147e-05 -9.88579599582e-05 0)
(3.46493349554e-05 -9.87047673083e-05 0)
(3.45633120455e-05 -9.04145300883e-05 0)
(3.40594825794e-05 -4.90140917141e-05 0)
(3.43467352323e-05 -8.22786878425e-05 0)
(3.45927523475e-05 -0.000115580513703 0)
(3.46998377203e-05 -0.000106967812624 0)
(3.86249077531e-05 -9.89742872606e-05 0)
(3.47096149604e-05 -0.00012387194228 0)
(3.4834173527e-05 -0.000140326919385 0)
(3.41372555965e-05 -4.89914261509e-05 0)
(3.79687010547e-05 -6.62559202183e-05 0)
(3.44909908561e-05 -8.20797751821e-05 0)
(3.83034974461e-05 -8.25930857697e-05 0)
(3.84228869385e-05 -9.08408846251e-05 0)
(3.80351481505e-05 -7.45752270768e-05 0)
(3.79354768689e-05 -6.20961869232e-05 0)
(3.82344907137e-05 -9.9533307384e-05 0)
(3.80019239647e-05 -7.04154937817e-05 0)
(3.80683723363e-05 -7.87349603719e-05 0)
(3.84945151256e-05 -9.49488742907e-05 0)
(3.83899732856e-05 -8.66800306564e-05 0)
(3.46337133321e-05 -0.000115528909392 0)
(3.41586019904e-05 -4.89040365757e-05 0)
(3.42514020098e-05 -5.72427812051e-05 0)
(3.39608944349e-05 -4.08306624456e-05 0)
(3.44179306788e-05 -8.21924975372e-05 0)
(3.44101161014e-05 -7.38140970965e-05 0)
(3.4570879656e-05 -9.04020097766e-05 0)
(3.58722223142e-05 -6.41926656637e-05 0)
(3.59054452243e-05 -6.83522392271e-05 0)
(3.76696872099e-05 -2.88187997575e-05 0)
(3.76032388383e-05 -2.04993331673e-05 0)
(3.82734651532e-05 -6.16129837319e-05 0)
(3.81274382231e-05 -5.34101253653e-05 0)
(3.77361343057e-05 -3.7138106616e-05 0)
(3.79662122824e-05 -4.52243210366e-05 0)
(3.85576277403e-05 -0.00010341069756 0)
(3.88258964159e-05 -0.000111338462463 0)
(3.88973449293e-05 -0.000127983956629 0)
(3.87849665317e-05 -0.000119773960607 0)
(3.83961248093e-05 -6.98502135024e-05 0)
(3.84707927338e-05 -7.81387842548e-05 0)
(3.58389981284e-05 -6.00329323686e-05 0)
(3.61380119733e-05 -9.74700528294e-05 0)
(3.59386694101e-05 -7.25119725222e-05 0)
(3.59718935959e-05 -7.66717058173e-05 0)
(3.47218153058e-05 -0.00012381944949 0)
(3.47615473982e-05 -0.000132153985463 0)
(3.48244880511e-05 -0.000140474278779 0)
(3.46594597728e-05 -0.000107092414327 0)
(3.46774471664e-05 -0.000115484471321 0)
(3.89163159946e-05 -0.00013213917125 0)
(3.47072416805e-05 -0.000128054802988 0)
(3.58888344071e-05 -6.62725323112e-05 0)
(3.88290986942e-05 -0.000115499393998 0)
(3.46489639003e-05 -0.000111318310483 0)
(3.46663246097e-05 -0.000119751905377 0)
(3.57559389397e-05 -4.96337588625e-05 0)
(3.56894918439e-05 -4.1314452004e-05 0)
(3.58223860355e-05 -5.7953065721e-05 0)
(3.5955281503e-05 -7.45918391697e-05 0)
(3.78890447652e-05 -7.56279637664e-06 0)
(3.81595380436e-05 -2.38890859254e-05 0)
(3.8394686508e-05 -5.72301353611e-05 0)
(3.8099477563e-05 -4.0829395827e-05 0)
(3.85658367091e-05 -7.37984765698e-05 0)
(3.61213998804e-05 -9.53901861818e-05 0)
(3.60549527846e-05 -8.70708793233e-05 0)
(3.59885056888e-05 -7.87515724648e-05 0)
(3.84996641663e-05 -6.54935442898e-05 0)
(3.43015210169e-05 -6.13777793064e-05 0)
(3.4374958292e-05 -6.96722703386e-05 0)
(3.8081936194e-05 -3.24331819819e-05 0)
(3.3887374983e-05 -3.67258827237e-05 0)
(3.88794869507e-05 -0.000106988102647 0)
(3.61546240662e-05 -9.95499194769e-05 0)
(3.88967537328e-05 -0.000123789937666 0)
(3.8273284293e-05 -4.89903396767e-05 0)
(3.41903941967e-05 -5.31244832316e-05 0)
(3.4053818487e-05 -4.49049362193e-05 0)
(3.79520889618e-05 -6.41760535708e-05 0)
(3.79853118718e-05 -6.83356271342e-05 0)
(3.58556102213e-05 -6.21127990161e-05 0)
(3.59220573172e-05 -7.04321058746e-05 0)
(3.86521895464e-05 -8.20700213519e-05 0)
(3.44483881701e-05 -7.79458352405e-05 0)
(3.57227147539e-05 -4.54740255674e-05 0)
(3.57891631255e-05 -5.37934921576e-05 0)
(3.82068684249e-05 -8.06349425881e-05 0)
(3.60217285988e-05 -8.29111460282e-05 0)
(3.60975892012e-05 -7.85890423977e-05 0)
(3.60881769704e-05 -9.12306126184e-05 0)
(3.80185360576e-05 -7.24953604293e-05 0)
(3.80517602434e-05 -7.66550937244e-05 0)
(3.5955281503e-05 -7.45918391697e-05 0)
(3.8075841399e-05 -2.82301016877e-05 0)
(3.84498697257e-05 -6.13591825637e-05 0)
(3.80513840364e-05 -3.66879918718e-05 0)
(3.89105544391e-05 -0.000127957813193 0)
(3.88395218126e-05 -0.000119684388886 0)
(3.47177681721e-05 -0.000123832740393 0)
(3.87681419468e-05 -0.000102967489541 0)
(3.88711671023e-05 -0.000111226441291 0)
(3.46943088511e-05 -0.000107035587351 0)
(3.85366377109e-05 -6.96427046727e-05 0)
(3.48281840843e-05 -0.000140437029395 0)
(3.57393268468e-05 -4.75538922149e-05 0)
(3.58888344071e-05 -6.62725323112e-05 0)
(3.58722223142e-05 -6.41926656637e-05 0)
(3.58556102213e-05 -6.21127990161e-05 0)
(3.57725510326e-05 -5.17136255101e-05 0)
(3.61380119733e-05 -9.74700528294e-05 0)
(3.60383406917e-05 -8.49910126758e-05 0)
(3.59054452243e-05 -6.83522392271e-05 0)
(3.59220573172e-05 -7.04321058746e-05 0)
(3.60051165059e-05 -8.08312793807e-05 0)
(3.59885056888e-05 -7.87515724648e-05 0)
(3.76364630241e-05 -2.46590664624e-05 0)
(3.77029101199e-05 -3.29783733209e-05 0)
(3.82371914171e-05 -1.95714407492e-05 0)
(3.83376349899e-05 -5.31071732731e-05 0)
(3.81789399566e-05 -5.75382435209e-05 0)
(3.83605531279e-05 -6.56965691493e-05 0)
(3.58389981284e-05 -6.00329323686e-05 0)
(3.80769487208e-05 -4.9268740547e-05 0)
(3.58057739426e-05 -5.58731990734e-05 0)
(3.77693584915e-05 -4.12978399111e-05 0)
(3.81833874887e-05 -4.49150832727e-05 0)
(3.5706102661e-05 -4.33941589198e-05 0)
(3.88484892947e-05 -0.000107047135249 0)
(3.61546240662e-05 -9.95499194769e-05 0)
(3.87415419652e-05 -0.000115657119613 0)
(3.89226881964e-05 -0.000123756983434 0)
(3.88754338515e-05 -0.000132220646667 0)
(3.841696009e-05 -7.40188315536e-05 0)
(3.59386694101e-05 -7.25119725222e-05 0)
(3.86041827737e-05 -7.79394791532e-05 0)
(3.85560394573e-05 -8.22118414129e-05 0)
(3.60382065097e-05 -7.65742128341e-05 0)
(3.61213998804e-05 -9.53901861818e-05 0)
(3.61047877875e-05 -9.33103195343e-05 0)
(3.60715648775e-05 -8.91507459709e-05 0)
(3.5955281503e-05 -7.45918391697e-05 0)
(3.59718935959e-05 -7.66717058173e-05 0)
(3.60383406917e-05 -8.49910126758e-05 0)
(3.60051165059e-05 -8.08312793807e-05 0)
(3.54730264881e-05 -1.42125644441e-05 0)
(3.56064313794e-05 -3.09151187662e-05 0)
(3.55067600978e-05 -1.84360786126e-05 0)
(3.57725510326e-05 -5.17136255101e-05 0)
(3.56396555652e-05 -3.50748520613e-05 0)
(3.57393268468e-05 -4.75538922149e-05 0)
(3.86254645711e-05 -8.63240019642e-05 0)
(3.89196341124e-05 -0.00013633460611 0)
(3.60715648775e-05 -8.91507459709e-05 0)
(3.69039288195e-05 -6.31443457897e-05 0)
(3.69205409124e-05 -6.52242124372e-05 0)
(3.68208696308e-05 -5.27451722836e-05 0)
(3.68208696308e-05 -5.27451722836e-05 0)
(3.68042575379e-05 -5.06653056361e-05 0)
(3.69537650982e-05 -6.93839457323e-05 0)
(3.69371530053e-05 -6.73040790848e-05 0)
(3.53917185893e-05 -5.99265587351e-06 0)
(3.55843990837e-05 -5.73663208905e-06 0)
(3.54953233505e-05 -1.01441753951e-05 0)
(3.55732084694e-05 -2.67555452028e-05 0)
(3.55399842836e-05 -2.25958119077e-05 0)
(3.5672879751e-05 -3.92345853564e-05 0)
(3.5706102661e-05 -4.33941589198e-05 0)
(3.61712361591e-05 -0.000101629786124 0)
(3.68220541803e-05 -0.000105033480207 0)
(3.66775964678e-05 -0.000109307090965 0)
(3.69039288195e-05 -6.31443457897e-05 0)
(3.69205409124e-05 -6.52242124372e-05 0)
(3.68873180024e-05 -6.10646388738e-05 0)
(3.68707059095e-05 -5.89847722263e-05 0)
(3.68854152556e-05 -6.10664112322e-05 0)
(3.68374817237e-05 -5.48250389312e-05 0)
(3.68540938166e-05 -5.69049055787e-05 0)
(3.70866605656e-05 -8.60227191811e-05 0)
(3.70700484727e-05 -8.39428525335e-05 0)
(3.71032713828e-05 -8.81024260969e-05 0)
(3.69537650982e-05 -6.93839457323e-05 0)
(3.68999158638e-05 -6.73419158488e-05 0)
(3.69703771911e-05 -7.14638123799e-05 0)
(3.6986989284e-05 -7.35436790275e-05 0)
(3.70368242869e-05 -7.97831192384e-05 0)
(3.70534363798e-05 -8.1862985886e-05 0)
(3.7020212194e-05 -7.77032525908e-05 0)
(3.7040203419e-05 -7.55861932093e-05 0)
(3.39057155159e-05 -1.56221534487e-05 0)
(3.39433019876e-05 -1.14080535089e-05 0)
(3.47762473055e-05 -0.000136254442725 0)
(3.62337684079e-05 -8.2578946447e-05 0)
(3.37139903838e-05 -7.4577904705e-06 0)
(3.63358795681e-05 -9.0863464202e-05 0)
(3.87431807248e-05 -9.03622955346e-05 0)
(3.6895623411e-05 -6.21044923318e-05 0)
(3.70949659742e-05 -8.7062572639e-05 0)
(3.69620705068e-05 -7.04237991903e-05 0)
(3.70285188784e-05 -7.87432657805e-05 0)
(3.80128533313e-05 -7.32387194007e-06 0)
(3.90142200442e-05 -0.000140356950492 0)
(3.45340609975e-05 -8.62322414509e-05 0)
(3.83483940499e-05 -8.46342287074e-05 0)
(3.62916925805e-05 -8.67111665954e-05 0)
(3.8389387679e-05 -8.87867115615e-05 0)
(3.68291763152e-05 -5.37851854733e-05 0)
(3.82511028066e-05 -0.000101613174032 0)
(3.68627411375e-05 -5.7987567136e-05 0)
(3.69271033058e-05 -6.62658369777e-05 0)
(3.70617417884e-05 -8.29028393439e-05 0)
(3.69952946926e-05 -7.45835324854e-05 0)
(3.57374581878e-05 -7.63993243996e-06 0)
(3.58805277228e-05 -6.52325191216e-05 0)
(3.69122355039e-05 -6.41843589793e-05 0)
(3.58639156299e-05 -6.3152652474e-05 0)
(3.68125642223e-05 -5.17053188257e-05 0)
(3.58971398157e-05 -6.73123857691e-05 0)
(3.69454584139e-05 -6.83439325427e-05 0)
(3.59137519086e-05 -6.93922524167e-05 0)
(3.56189170728e-05 -1.19183520951e-05 0)
(3.7653075117e-05 -2.67389331099e-05 0)
(3.7686298027e-05 -3.08985066733e-05 0)
(3.55898205623e-05 -2.88354118504e-05 0)
(3.76198509312e-05 -2.25791998148e-05 0)
(3.55233721907e-05 -2.05159452602e-05 0)
(3.81347116229e-05 -5.55007693095e-05 0)
(3.80996063788e-05 -5.13455238119e-05 0)
(3.6035252839e-05 -5.34444074586e-05 0)
(3.77195222128e-05 -3.50582399684e-05 0)
(3.77527463986e-05 -3.92179732635e-05 0)
(3.56562676581e-05 -3.71547187089e-05 0)
(3.80126564473e-05 -4.72592216795e-05 0)
(3.78805884218e-05 -4.3244045573e-05 0)
(3.58956626394e-05 -4.52274403938e-05 0)
(3.8770677739e-05 -0.000105104975703 0)
(3.64998977174e-05 -0.000103398858529 0)
(3.88491863873e-05 -0.000109174412615 0)
(3.87721382548e-05 -0.000113527835143 0)
(3.66916309071e-05 -0.000111404230326 0)
(3.67461158507e-05 -4.33858522355e-05 0)
(3.69122355039e-05 -6.41843589793e-05 0)
(3.58473048128e-05 -6.10729455582e-05 0)
(3.68790113181e-05 -6.00246256842e-05 0)
(3.68772683029e-05 -6.00263967668e-05 0)
(3.68457871323e-05 -5.58648923891e-05 0)
(3.61463186576e-05 -9.8510066019e-05 0)
(3.71780251629e-05 -9.7461746145e-05 0)
(3.61297065647e-05 -9.64301993715e-05 0)
(3.71448009771e-05 -9.33020128499e-05 0)
(3.70783538813e-05 -8.49827059914e-05 0)
(3.71115780671e-05 -8.91424392865e-05 0)
(3.69470429731e-05 -6.83423224676e-05 0)
(3.69786825997e-05 -7.25036658378e-05 0)
(3.70451296955e-05 -8.08229726963e-05 0)
(3.70119067855e-05 -7.66633991329e-05 0)
(3.56230434723e-05 -3.29949854138e-05 0)
(3.54901492807e-05 -1.63563716968e-05 0)
(3.60004364392e-05 -4.92853258483e-05 0)
(3.57476335312e-05 -4.85939054046e-05 0)
(3.57642443483e-05 -5.06736123204e-05 0)
(3.55565963765e-05 -2.46756785553e-05 0)
(3.56977972525e-05 -4.23543054619e-05 0)
(3.56894918439e-05 -4.1314452004e-05 0)
(3.7834695285e-05 -5.51813474718e-06 0)
(3.67627279436e-05 -4.5465718883e-05 0)
(3.6895623411e-05 -6.21044923318e-05 0)
(3.6895623411e-05 -6.21044923318e-05 0)
(3.68790113181e-05 -6.00246256842e-05 0)
(3.69122355039e-05 -6.41843589793e-05 0)
(3.68291763152e-05 -5.37851854733e-05 0)
(3.716141307e-05 -9.53818794975e-05 0)
(3.70949659742e-05 -8.7062572639e-05 0)
(3.71115780671e-05 -8.91424392865e-05 0)
(3.70783538813e-05 -8.49827059914e-05 0)
(3.6046647376e-05 -8.60310258654e-05 0)
(3.60632581931e-05 -8.81107327812e-05 0)
(3.69620705068e-05 -7.04237991903e-05 0)
(3.69620705068e-05 -7.04237991903e-05 0)
(3.69454584139e-05 -6.83439325427e-05 0)
(3.69786825997e-05 -7.25036658378e-05 0)
(3.70451296955e-05 -8.08229726963e-05 0)
(3.70285188784e-05 -7.87432657805e-05 0)
(3.70119067855e-05 -7.66633991329e-05 0)
(3.59968110973e-05 -7.97914259227e-05 0)
(3.59801990044e-05 -7.77115592752e-05 0)
(3.68731326263e-05 -0.000106908601932 0)
(3.5509434108e-05 -7.97086993448e-06 0)
(3.69288475968e-05 -6.62642256269e-05 0)
(3.68325541714e-05 -4.95880997125e-05 0)
(3.57310214383e-05 -4.6514038757e-05 0)
(3.57144093454e-05 -4.44341721095e-05 0)
(3.57808564412e-05 -5.2753478968e-05 0)
(3.60300352831e-05 -8.39511592179e-05 0)
(3.60134231902e-05 -8.18712925703e-05 0)
(3.712819016e-05 -9.12223059341e-05 0)
(3.71946372558e-05 -9.95416127926e-05 0)
(3.69288475968e-05 -6.62642256269e-05 0)
(3.70617417884e-05 -8.29028393439e-05 0)
(3.68623992252e-05 -5.79447590367e-05 0)
(3.59635869115e-05 -7.56316926276e-05 0)
(3.79904837394e-05 -7.38315511255e-06 0)
(3.56727599522e-05 -5.61958631381e-06 0)
(3.60217285988e-05 -8.29111460282e-05 0)
(3.62712405475e-05 -8.46305319083e-05 0)
(3.60549527846e-05 -8.70708793233e-05 0)
(3.70866605656e-05 -8.60227191811e-05 0)
(3.70700484727e-05 -8.39428525335e-05 0)
(3.61660755822e-05 -8.05836717695e-05 0)
(3.70368242869e-05 -7.97831192384e-05 0)
(3.70534363798e-05 -8.1862985886e-05 0)
(3.54901492807e-05 -1.63563716968e-05 0)
(3.55282134066e-05 -1.22220749971e-05 0)
(3.54735369326e-05 -1.42764731029e-05 0)
(3.56230434723e-05 -3.29949854138e-05 0)
(3.55898205623e-05 -2.88354118504e-05 0)
(3.56064313794e-05 -3.09151187662e-05 0)
(3.55233721907e-05 -2.05159452602e-05 0)
(3.55067600978e-05 -1.84360786126e-05 0)
(3.57559389397e-05 -4.96337588625e-05 0)
(3.57891631255e-05 -5.37934921576e-05 0)
(3.60151700253e-05 -5.13699997567e-05 0)
(3.56562676581e-05 -3.71547187089e-05 0)
(3.56396555652e-05 -3.50748520613e-05 0)
(3.57227147539e-05 -4.54740255674e-05 0)
(3.59549034602e-05 -4.72445074772e-05 0)
(3.61712361591e-05 -0.000101629786124 0)
(3.86724820768e-05 -9.04706859966e-05 0)
(3.87010689737e-05 -8.6209821611e-05 0)
(3.63037681382e-05 -8.88030501195e-05 0)
(3.8951502129e-05 -0.000136264544365 0)
(3.60881769704e-05 -9.12306126184e-05 0)
(3.71032713828e-05 -8.81024260969e-05 0)
(3.67859024299e-05 -4.85872100711e-05 0)
(3.67940493825e-05 -4.96272245365e-05 0)
(3.69039288195e-05 -6.31443457897e-05 0)
(3.69122355039e-05 -6.41843589793e-05 0)
(3.69039288195e-05 -6.31443457897e-05 0)
(3.6895623411e-05 -6.21044923318e-05 0)
(3.69205409124e-05 -6.52242124372e-05 0)
(3.69288475968e-05 -6.62642256269e-05 0)
(3.69205409124e-05 -6.52242124372e-05 0)
(3.68208696308e-05 -5.27451722836e-05 0)
(3.68125642223e-05 -5.17053188257e-05 0)
(3.68291763152e-05 -5.37851854733e-05 0)
(3.68042575379e-05 -5.06653056361e-05 0)
(3.68291763152e-05 -5.37851854733e-05 0)
(3.69537650982e-05 -6.93839457323e-05 0)
(3.69454584139e-05 -6.83439325427e-05 0)
(3.69537650982e-05 -6.93839457323e-05 0)
(3.69620705068e-05 -7.04237991903e-05 0)
(3.69371530053e-05 -6.73040790848e-05 0)
(3.69737550474e-05 -6.72667266191e-05 0)
(3.54667858733e-05 -5.89122721426e-06 0)
(3.54464139393e-05 -8.06062108424e-06 0)
(3.56370291509e-05 -7.78601983779e-06 0)
(3.5569665469e-05 -9.99195460236e-06 0)
(3.55732084694e-05 -2.67555452028e-05 0)
(3.55565963765e-05 -2.46756785553e-05 0)
(3.55399842836e-05 -2.25958119077e-05 0)
(3.5672879751e-05 -3.92345853564e-05 0)
(3.56894918439e-05 -4.1314452004e-05 0)
(3.58125715219e-05 -4.32442693466e-05 0)
(3.6187848252e-05 -0.000103709652772 0)
(3.68437177437e-05 -0.000104925800877 0)
(3.6800888711e-05 -0.000107043521892 0)
(3.67828234548e-05 -0.000109141716346 0)
(3.65859170702e-05 -0.000111568650382 0)
(3.69122355039e-05 -6.41843589793e-05 0)
(3.6895623411e-05 -6.21044923318e-05 0)
(3.68873180024e-05 -6.10646388738e-05 0)
(3.68790113181e-05 -6.00246256842e-05 0)
(3.68873180024e-05 -6.10646388738e-05 0)
(3.68707059095e-05 -5.89847722263e-05 0)
(3.68707059095e-05 -5.89847722263e-05 0)
(3.6862167031e-05 -5.79156878647e-05 0)
(3.68374817237e-05 -5.48250389312e-05 0)
(3.68457871323e-05 -5.58648923891e-05 0)
(3.68540938166e-05 -5.69049055787e-05 0)
(3.70783538813e-05 -8.49827059914e-05 0)
(3.70949659742e-05 -8.7062572639e-05 0)
(3.70617417884e-05 -8.29028393439e-05 0)
(3.71115780671e-05 -8.91424392865e-05 0)
(3.69454584139e-05 -6.83439325427e-05 0)
(3.69620705068e-05 -7.04237991903e-05 0)
(3.69703771911e-05 -7.14638123799e-05 0)
(3.6986989284e-05 -7.35436790275e-05 0)
(3.69786825997e-05 -7.25036658378e-05 0)
(3.69935504017e-05 -7.45851438362e-05 0)
(3.70451296955e-05 -8.08229726963e-05 0)
(3.70285188784e-05 -7.87432657805e-05 0)
(3.7020212194e-05 -7.77032525908e-05 0)
(3.70036001011e-05 -7.56233859433e-05 0)
(3.70119067855e-05 -7.66633991329e-05 0)
(3.90324756458e-05 -0.000140342587653 0)
(3.37608482986e-05 -7.4244934055e-06 0)
(3.67710346279e-05 -4.65057320727e-05 0)
(3.6754422535e-05 -4.44258654251e-05 0)
(3.69039288195e-05 -6.31443457897e-05 0)
(3.69205409124e-05 -6.52242124372e-05 0)
(3.69239200445e-05 -6.10272864082e-05 0)
(3.68688031627e-05 -5.89865445847e-05 0)
(3.71697197544e-05 -9.64218926871e-05 0)
(3.71863318473e-05 -9.85017593347e-05 0)
(3.71531076615e-05 -9.43420260396e-05 0)
(3.71364955686e-05 -9.2262159392e-05 0)
(3.70866605656e-05 -8.60227191811e-05 0)
(3.70698162785e-05 -8.39137813616e-05 0)
(3.71032713828e-05 -8.81024260969e-05 0)
(3.71198834757e-05 -9.01822927445e-05 0)
(3.69537650982e-05 -6.93839457323e-05 0)
(3.69003912315e-05 -6.73414328263e-05 0)
(3.69703771911e-05 -7.14638123799e-05 0)
(3.6986989284e-05 -7.35436790275e-05 0)
(3.70368242869e-05 -7.97831192384e-05 0)
(3.70534363798e-05 -8.1862985886e-05 0)
(3.7020212194e-05 -7.77032525908e-05 0)
(3.69663629596e-05 -7.56612227073e-05 0)
(3.49483091382e-05 -0.000165556922001 0)
(3.48757065354e-05 -0.000148826933586 0)
(3.48862904269e-05 -0.000148772057579 0)
(3.48986126653e-05 -0.000165614826017 0)
(3.48321436573e-05 -0.000148892775708 0)
(3.48830212813e-05 -0.000148802754135 0)
(3.48549038993e-05 -0.0001488624027 0)
(3.90829355472e-05 -0.000144500266382 0)
(3.48704935958e-05 -0.000144514263303 0)
(3.90691605805e-05 -0.0001487356135 0)
(3.90549337363e-05 -0.000148774384672 0)
(3.90589155702e-05 -0.0001445129181 0)
(3.67710346279e-05 -4.65057320727e-05 0)
(3.67378104421e-05 -4.23459987776e-05 0)
(3.6754422535e-05 -4.44258654251e-05 0)
(3.69205409124e-05 -6.52242124372e-05 0)
(3.69039288195e-05 -6.31443457897e-05 0)
(3.69073079516e-05 -5.89474197606e-05 0)
(3.68873180024e-05 -6.10646388738e-05 0)
(3.71863318473e-05 -9.85017593347e-05 0)
(3.71697197544e-05 -9.64218926871e-05 0)
(3.71347525534e-05 -9.22639304746e-05 0)
(3.71531076615e-05 -9.43420260396e-05 0)
(3.707067999e-05 -8.40219197319e-05 0)
(3.70866605656e-05 -8.60227191811e-05 0)
(3.71198834757e-05 -9.01822927445e-05 0)
(3.71032713828e-05 -8.81024260969e-05 0)
(3.69371530053e-05 -6.73040790848e-05 0)
(3.69537650982e-05 -6.93839457323e-05 0)
(3.6986989284e-05 -7.35436790275e-05 0)
(3.69703771911e-05 -7.14638123799e-05 0)
(3.70036001011e-05 -7.56233859433e-05 0)
(3.70217967533e-05 -7.77016425158e-05 0)
(3.67795722307e-05 -4.75746567025e-05 0)
(3.67627279436e-05 -4.5465718883e-05 0)
(3.67461158507e-05 -4.33858522355e-05 0)
(3.69122355039e-05 -6.41843589793e-05 0)
(3.69288475968e-05 -6.62642256269e-05 0)
(3.6895623411e-05 -6.21044923318e-05 0)
(3.68790113181e-05 -6.00246256842e-05 0)
(3.71780251629e-05 -9.7461746145e-05 0)
(3.716141307e-05 -9.53818794975e-05 0)
(3.7181404295e-05 -9.3264820116e-05 0)
(3.712819016e-05 -9.12223059341e-05 0)
(3.70783538813e-05 -8.49827059914e-05 0)
(3.70949659742e-05 -8.7062572639e-05 0)
(3.71115780671e-05 -8.91424392865e-05 0)
(3.69454584139e-05 -6.83439325427e-05 0)
(3.69620705068e-05 -7.04237991903e-05 0)
(3.69786825997e-05 -7.25036658378e-05 0)
(3.69952946926e-05 -7.45835324854e-05 0)
(3.69751450117e-05 -7.67007528744e-05 0)
(3.71946372558e-05 -9.95416127926e-05 0)
(3.87257931667e-05 -9.46053391187e-05 0)
(3.61047877875e-05 -9.33103195343e-05 0)
(3.58544882426e-05 -1.34523250744e-05 0)
(3.57146936027e-05 -9.74976169015e-06 0)
(3.59178180053e-05 -1.78013357081e-05 0)
(3.58389981284e-05 -6.00329323686e-05 0)
(3.58057739426e-05 -5.58731990734e-05 0)
(3.65472058426e-05 -0.00011374192869 0)
(3.66043533029e-05 -0.000117856902916 0)
(3.68605686175e-05 -0.000121675563356 0)
(3.68707059095e-05 -5.89847722263e-05 0)
(3.68540938166e-05 -5.69049055787e-05 0)
(3.68374817237e-05 -5.48250389312e-05 0)
(3.71531076615e-05 -9.43420260396e-05 0)
(3.71364955686e-05 -9.2262159392e-05 0)
(3.71198834757e-05 -9.01822927445e-05 0)
(3.69703771911e-05 -7.14638123799e-05 0)
(3.6986989284e-05 -7.35436790275e-05 0)
(3.4076830375e-05 -3.22060697753e-05 0)
(3.4097198771e-05 -1.95762329476e-05 0)
(3.42168844263e-05 -4.88411119839e-05 0)
(3.39365976788e-05 -2.39686608785e-05 0)
(3.41030513552e-05 -4.05689879796e-05 0)
(3.716141307e-05 -9.53818794975e-05 0)
(3.46145848969e-05 -9.45539917471e-05 0)
(3.84488456083e-05 -9.92309610481e-05 0)
(3.85503171205e-05 -9.69753936127e-05 0)
(3.64132096169e-05 -9.4965338134e-05 0)
(3.61147217158e-05 -1.53340668627e-05 0)
(3.84407666788e-05 -9.29194632126e-05 0)
(3.68623992252e-05 -5.79447590367e-05 0)
(3.80578783335e-05 -6.19210906159e-05 0)
(3.712819016e-05 -9.12223059341e-05 0)
(3.80288716236e-05 -1.98893935888e-05 0)
(3.82062926058e-05 -5.96028489017e-05 0)
(3.61891719462e-05 -6.16353818886e-05 0)
(3.87318312382e-05 -0.000117761317531 0)
(3.88627660899e-05 -0.000121754618047 0)
(3.67439292397e-05 -0.000119752084251 0)
(3.58389981284e-05 -6.00329323686e-05 0)
(3.59303640015e-05 -7.14721190642e-05 0)
(3.69786825997e-05 -7.25036658378e-05 0)
(3.59469760944e-05 -7.35519857118e-05 0)
(3.6623455288e-05 -0.000115728508962 0)
(3.56894918439e-05 -4.1314452004e-05 0)
(3.58306927199e-05 -5.89930789106e-05 0)
(3.5814080627e-05 -5.69132122631e-05 0)
(3.61006680746e-05 -5.75545233924e-05 0)
(3.80076724505e-05 -2.41152154909e-05 0)
(3.82032405039e-05 -2.17207197507e-05 0)
(3.89396445135e-05 -0.000123719947623 0)
(3.71448009771e-05 -9.33020128499e-05 0)
(3.61213998804e-05 -9.53901861818e-05 0)
(3.61130944718e-05 -9.43503327239e-05 0)
(3.59340683149e-05 -1.14359063762e-05 0)
(3.61284130717e-05 -1.96082515005e-05 0)
(3.68952870442e-05 -0.000123722378555 0)
(3.57974685341e-05 -5.48333456155e-05 0)
(3.60964823789e-05 -9.22704660764e-05 0)
(3.6079870286e-05 -9.01905994288e-05 0)
(3.68790113181e-05 -6.00246256842e-05 0)
(3.68457871323e-05 -5.58648923891e-05 0)
(3.69952946926e-05 -7.45835324854e-05 0)
(3.5955281503e-05 -7.45918391697e-05 0)
(3.61629294747e-05 -0.000100589772935 0)
(3.56147380638e-05 -3.19551319559e-05 0)
(3.55981259709e-05 -2.98752653083e-05 0)
(3.56313501567e-05 -3.40349986034e-05 0)
(3.56479622496e-05 -3.6114865251e-05 0)
(3.5581513878e-05 -2.77953986608e-05 0)
(3.56645730667e-05 -3.81945721668e-05 0)
(3.56811851596e-05 -4.02744388144e-05 0)
(3.72112493487e-05 -0.00010162147944 0)
(3.87862202472e-05 -9.45109282424e-05 0)
(3.61213998804e-05 -9.53901861818e-05 0)
(3.61363672651e-05 -1.74641321363e-05 0)
(3.59968003236e-05 -6.19100770347e-05 0)
(3.6633213477e-05 -0.000113610253378 0)
(3.66593058705e-05 -0.000117777072279 0)
(3.63679909981e-05 -9.29238782845e-05 0)
(3.87845774936e-05 -9.87252522703e-05 0)
(3.71531076615e-05 -9.43420260396e-05 0)
(3.71364955686e-05 -9.2262159392e-05 0)
(3.58075624359e-05 -1.1597121946e-05 0)
(3.59144935107e-05 -1.562510246e-05 0)
(3.6039665419e-05 -1.32768711392e-05 0)
(3.58215552876e-05 -9.58905445252e-06 0)
(3.80146179824e-05 -2.20048097247e-05 0)
(3.59158341052e-05 -1.99329475186e-05 0)
(3.61367013531e-05 -5.96059606041e-05 0)
(3.58223860355e-05 -5.7953065721e-05 0)
(3.68707059095e-05 -5.89847722263e-05 0)
(3.60602197188e-05 -5.551030983e-05 0)
(3.68540938166e-05 -5.69049055787e-05 0)
(3.68374817237e-05 -5.48250389312e-05 0)
(3.65524256945e-05 -0.00011583546439 0)
(3.69280606284e-05 -0.000123685695635 0)
(3.67174005019e-05 -0.000119790634195 0)
(3.6854258448e-05 -0.000121685517754 0)
(3.68790113181e-05 -6.00246256842e-05 0)
(3.68623992252e-05 -5.79447590367e-05 0)
(3.68457871323e-05 -5.58648923891e-05 0)
(3.716141307e-05 -9.53818794975e-05 0)
(3.71448009771e-05 -9.33020128499e-05 0)
(3.712819016e-05 -9.12223059341e-05 0)
(3.71198834757e-05 -9.01822927445e-05 0)
(3.69703771911e-05 -7.14638123799e-05 0)
(3.69786825997e-05 -7.25036658378e-05 0)
(3.6986989284e-05 -7.35436790275e-05 0)
(3.69952946926e-05 -7.45835324854e-05 0)
(3.40067298624e-05 -2.38893479675e-05 0)
(3.41483710245e-05 -4.05230995645e-05 0)
(3.72029426644e-05 -0.000100581466251 0)
(3.72029426644e-05 -0.000100581466251 0)
(3.72112493487e-05 -0.00010162147944 0)
(3.63001937866e-05 -9.72355342882e-05 0)
(3.88503660336e-05 -0.000102822106645 0)
(3.40881481047e-05 -3.22230717632e-05 0)
(3.41267024151e-05 -2.79501471242e-05 0)
(3.65201329068e-05 -9.90123439709e-05 0)
(3.46904745402e-05 -0.000102835524098 0)
(3.47220876328e-05 -0.000106973545362 0)
(3.86912354558e-05 -0.000100998645868 0)
(3.81909213347e-05 -6.59383355799e-05 0)
(3.83090434766e-05 -6.36674596735e-05 0)
(3.86771545494e-05 -0.000103195688737 0)
(3.55649017851e-05 -2.57155320132e-05 0)
(3.63676220079e-05 -9.9237679981e-05 0)
(3.6477661622e-05 -9.69748557258e-05 0)
(3.81360943154e-05 -6.39138851154e-05 0)
(3.85435484031e-05 -0.000101227936897 0)
(3.5531678875e-05 -2.15559584498e-05 0)
(3.55482909679e-05 -2.36358250974e-05 0)
(3.54984546892e-05 -1.73962251547e-05 0)
(3.55150667821e-05 -1.94760918023e-05 0)
(3.54818428515e-05 -1.53163904535e-05 0)
(3.69288475968e-05 -6.62642256269e-05 0)
(3.70489841953e-05 -7.66255636447e-05 0)
(3.69952946926e-05 -7.45835324854e-05 0)
(3.70036001011e-05 -7.56233859433e-05 0)
(3.69742304152e-05 -6.72662435966e-05 0)
(3.49813036921e-05 -0.000165527904928 0)
(3.49793930328e-05 -0.000165548686636 0)
(3.49528400889e-05 -0.000157164205926 0)
(3.49703204776e-05 -0.000165532784909 0)
(3.90730300982e-05 -0.000152980084721 0)
(3.49316914554e-05 -0.000157176355485 0)
(3.49824600878e-05 -0.000165532687949 0)
(3.49167422657e-05 -0.000152984687587 0)
(3.91300905469e-05 -0.000157104164931 0)
(3.90901180796e-05 -0.000152939533536 0)
(3.49374009717e-05 -0.000157171198142 0)
(3.91513363983e-05 -0.000157084187242 0)
(3.91941868458e-05 -0.000161229147397 0)
(3.49730068419e-05 -0.000161349122991 0)
(3.91650161388e-05 -0.000165476917609 0)
(3.917341813e-05 -0.000165468863406 0)
(3.91598822857e-05 -0.000161274149123 0)
(3.91565084913e-05 -0.000169711743431 0)
(3.91695493388e-05 -0.000169684483149 0)
(3.67876467208e-05 -4.85855987202e-05 0)
(3.68042575379e-05 -5.06653056361e-05 0)
(3.68208696308e-05 -5.27451722836e-05 0)
(3.68168566751e-05 -5.69427423427e-05 0)
(3.68374817237e-05 -5.48250389312e-05 0)
(3.70700484727e-05 -8.39428525335e-05 0)
(3.70860277726e-05 -8.59434922509e-05 0)
(3.70534363798e-05 -8.1862985886e-05 0)
(3.70368242869e-05 -7.97831192384e-05 0)
(3.68623992252e-05 -5.79447590367e-05 0)
(3.69952946926e-05 -7.45835324854e-05 0)
(3.66630566619e-05 -3.29866787294e-05 0)
(3.71946372558e-05 -9.95416127926e-05 0)
(3.69288475968e-05 -6.62642256269e-05 0)
(3.67959521294e-05 -4.96254521782e-05 0)
(3.70617417884e-05 -8.29028393439e-05 0)
(3.6895623411e-05 -6.21044923318e-05 0)
(3.69620705068e-05 -7.04237991903e-05 0)
(3.67627279436e-05 -4.5465718883e-05 0)
(3.68291763152e-05 -5.37851854733e-05 0)
(3.70285188784e-05 -7.87432657805e-05 0)
(3.62440817152e-05 -0.000103790192775 0)
(3.67461158507e-05 -4.33858522355e-05 0)