/*--------------------------------*- C++ -*----------------------------------*\
| =========                 |                                                 |
| \\      /  F ield         | OpenFOAM: The Open Source CFD Toolbox           |
|  \\    /   O peration     | Version:  2406                                  |
|   \\  /    A nd           | Website:  www.openfoam.com                      |
|    \\/     M anipulation  |                                                 |
\*---------------------------------------------------------------------------*/
FoamFile
{
    version     2.0;
    format      ascii;
    arch        "LSB;label=32;scalar=64";
    class       volVectorField;
    location    "0.01";
    object      U;
}
// * * * * * * * * * * * * * * * * * * * * * * * * * * * * * * * * * * * * * //

dimensions      [0 1 -1 0 0 0 0];

internalField   nonuniform List<vector> 
29767
(
(0.102002959641 -0.308043300013 0.173160944335)
(0.0993452296866 -0.248091919148 0.150544295516)
(0.0962653424312 -0.300906801073 0.181364136993)
(0.0875482501345 -0.302324640804 0.0666417057529)
(0.0824406002478 -0.300477529055 0.0799213163128)
(0.0903902481205 -0.241610226765 0.159486778174)
(0.0817501888227 -0.253643907929 0.051072131875)
(0.0702008145262 -0.249900331255 0.0632939789133)
(0.0556955599243 -0.194103144079 -0.0111692092487)
(0.0263223849268 -0.068852632194 -0.00946306280631)
(0.0610603840654 -0.225053709307 -0.0067036400827)
(0.0284715429269 -0.0970795600923 -0.0137782933493)
(0.0553358392307 -0.226208778229 -0.000682924077215)
(0.0245690889251 -0.102771527939 -0.0143335466645)
(0.0258181766085 -0.0837385756869 -0.0136182902827)
(0.0221472053617 -0.0792487396362 -0.0119903077266)
(0.0544796041004 -0.200601668617 -0.00556830156429)
(0.0613125291583 -0.179474569256 -0.00393862808623)
(0.0242905787696 -0.0899883609128 -0.0148395409097)
(0.0573460527246 -0.186959921744 -3.82763234718e-05)
(0.0282527019886 -0.0768282402551 -0.0127355191973)
(0.0239081942423 -0.0857199290109 -0.0125329748065)
(0.0528181973142 -0.202354659562 -0.000861972396433)
(0.0234540850386 -0.0937754418212 -0.0139196877036)
(0.0522429811403 -0.186587166183 0.00278557757853)
(0.0622864749089 0.0451642674943 0.174335925064)
(0.0548702809326 0.123379171258 0.197817931157)
(0.066426228291 0.00817750448102 0.165813398117)
(0.0762880400181 -0.0831520138916 0.154632208377)
(0.0803315829586 -0.128433971161 0.155320759138)
(0.00727090332884 0.149641751835 0.0702782649388)
(0.0395684637075 0.0499913571063 0.0486201733634)
(0.0411454805598 0.0348988336923 0.0437647131315)
(0.0514476860051 -0.128315268439 0.00354888351253)
(0.0975642901395 -0.143442541305 0.28011643949)
(0.101559600543 -0.116012389028 0.397735184647)
(0.0676986275564 -0.203796306346 0.0749254368086)
(0.0902313413604 -0.213569476736 0.159378019889)
(0.0775023309812 -0.207044864103 0.0669002812769)
(0.0834765575103 -0.208845176316 0.165783950964)
(0.0561121383234 -0.144540688141 0.00328862174837)
(0.109240515216 -0.195735583983 0.274053519342)
(0.108132749503 -0.148251898391 0.403710572955)
(0.0840518795291 -0.0217578088648 0.266974464603)
(0.0874872304316 -0.0669280685701 0.269357088956)
(0.0941197519392 -0.0566401073983 0.391027186701)
(0.0885945486436 -0.0245056866898 0.384590613387)
(0.00169146932512 0.0657811821696 0.012945881499)
(-0.00170772761663 0.018824131289 0.00234596823918)
(0.00393193099509 0.0805984709394 0.0158613549657)
(0.00624032251639 0.0291974524819 0.00332947141777)
(0.00913518393729 0.0224068077564 0.00179918955981)
(0.00733919445261 0.0237014079798 0.0023974327414)
(0.00836588323524 0.028089008445 0.00263093833558)
(0.00610305440019 -0.00396964333788 -0.00102997633571)
(0.0477498038892 -0.00762881234461 0.0985145705502)
(0.0567505208339 0.0109445562714 0.171528991987)
(0.0565257493396 0.019384179369 0.094691627731)
(0.0697005175841 -0.0155190193352 0.162881605744)
(0.0448462032846 0.0220640417626 0.103277039484)
(0.0587507270883 -0.0103558666764 0.0879971251769)
(0.0599694876387 -0.0123969150164 0.169523229542)
(0.00906192536241 0.01283064868 0.000750474877831)
(0.0100744664673 0.0170044937417 0.00095687386832)
(0.00837872898177 0.0182073911339 0.00149361177102)
(0.0103932450178 0.0111871738162 0.000363240207206)
(0.0516398806003 -0.0442894072648 0.0923983572043)
(0.0636845726883 -0.0794501310612 0.0714618953156)
(0.0727133456152 -0.0550262198521 0.159073482993)
(0.0669964306634 -0.0793954281387 0.161711385249)
(0.0615216604535 -0.0465426394666 0.0810360963632)
(0.0634758533687 -0.0515327308396 0.165679820816)
(0.0540552195518 -0.0774038907644 0.0819447077569)
(0.0682177514313 -0.119484327882 0.0688078865321)
(0.0717945923883 -0.124299554506 0.161516066242)
(0.0579768658137 -0.117087448981 0.0769309867078)
(0.0613130393859 -0.155151671112 0.0713922278177)
(0.0865731819938 -0.163281039945 0.156624162705)
(0.0713779052853 -0.158084336757 0.0637703770133)
(0.0775762064745 -0.15886047439 0.1638233546)
(0.00407019717793 0.0563056418179 0.00917302769988)
(0.0034793590283 0.0471413884103 0.00684453583148)
(0.000758785309374 0.08260813359 0.0170547004828)
(-0.00147110315551 0.0258783583763 0.00484087267973)
(-0.00106411466713 0.0982758901753 0.0209994634138)
(0.0027928547666 0.0679872472102 0.00939256186796)
(0.00287722826515 0.0515607652536 0.0092019245437)
(-0.00192765343562 0.0173647685822 0.00148952889507)
(0.00553253692134 0.0348205904437 0.00433055093477)
(0.0062939927153 0.038978896427 0.00452426388345)
(0.00423467698296 0.0405628187745 0.00548980759522)
(0.00751500055879 0.0334692659481 0.00353836796167)
(0.00437560477227 0.0304007276553 0.00408998693603)
(0.00558589901695 0.0249071916502 0.00302662031066)
(0.0035998944056 0.0366838774788 0.0052405196944)
(0.00185798550184 0.0435206871492 0.00690421076241)
(0.00800796085306 -0.0033409510643 -0.00146319580229)
(0.00524908519833 0.000269865511075 -0.000641862638273)
(0.0095586260811 -0.00231944812099 -0.00126134436648)
(0.0249490804078 -0.025047483268 0.00883850468124)
(0.0368968815435 -0.0226600623535 0.0385232982716)
(0.0252728897041 -0.0128132076359 0.0120030658431)
(0.0377679943889 -0.0385352561613 0.0337604074825)
(0.00996637811935 -0.0100321185461 -0.00180036152531)
(0.00585304690046 -0.00564084203294 -0.00120120353017)
(0.0202397973482 -0.0264635193801 -0.00302627021244)
(0.0418782233901 -0.0651005363147 0.0154008719337)
(0.0408259528765 -0.0525200512864 0.0207027794087)
(0.0185651169004 -0.0297252793354 -0.00557959406127)
(0.00984509826463 -0.0076219839615 -0.00158552505236)
(0.0104517227244 -0.00248080199949 -0.00116220837563)
(0.0226666733322 -0.02045733517 0.000842380634564)
(0.0400840114976 -0.0235325699562 0.031299345604)
(0.0251473867669 -0.0129762167988 0.00503923207577)
(0.0406318417005 -0.0379663371715 0.0260349790915)
(0.0249846292715 -0.0352281703505 0.0030202902663)
(0.038411711257 -0.0670542497899 0.0218255215831)
(0.0386897630766 -0.054272561258 0.0275583537744)
(0.0189276286102 -0.0357593816064 -0.00363999956908)
(0.00992940320599 0.00728688273747 -0.000140059233601)
(0.00751082060109 0.00221118471955 -0.000529100296134)
(0.0100488422014 0.00163247909895 -0.000714472036847)
(0.00904178340394 0.00492720469991 -0.000385794895705)
(0.0222609341005 0.0113948675338 0.0175711441441)
(0.0349648079639 -0.00667774474637 0.0425183609515)
(0.0232046363518 -0.000985631425135 0.0153321538475)
(0.0337000533587 0.00860130263832 0.0460498545673)
(0.00741932025137 0.0138724159843 0.00125225830717)
(0.00644722696347 0.0192251632817 0.00208095232011)
(0.0244723661397 0.0219009772228 0.0170216265619)
(0.0271759805219 0.0318196989867 0.0170063856223)
(0.0356404459483 0.0364929272517 0.048313509187)
(0.0235272924648 0.0338490244737 0.0192768729135)
(0.0367074321884 0.0221395862498 0.0446244707634)
(0.0275186856508 0.0196267864131 0.0138814710951)
(0.00835129247882 0.00831438974415 0.000340230521108)
(0.00905940912128 0.00275957361161 -0.000394890228746)
(0.025742577685 0.00990345260463 0.0132895947793)
(0.0392149321497 -0.00819737387074 0.0356153919315)
(0.0261500418938 -0.00250489105426 0.0103131413097)
(0.0382849870414 0.00675472710785 0.0402195692003)
(0.0198843104904 -0.0420033877512 -0.0070853319819)
(0.0202245148824 -0.0335516645981 -0.00610180049633)
(0.0429526523996 -0.0803668529465 0.0127474694783)
(0.047920253624 -0.0949889506771 0.0083367919181)
(0.020236457322 -0.0357406364556 -0.00667167469001)
(0.0444486451432 -0.094887824993 0.0107291408374)
(0.0208292178305 -0.0408673383759 -0.00691587280434)
(0.0168696210181 -0.0465145143659 -0.00690202061911)
(0.0393447107211 -0.0820590953789 0.016031121995)
(0.0192715340634 -0.039341793344 -0.00663435061898)
(0.0402340661582 -0.096525954961 0.0136527376258)
(0.0195672256002 -0.0508802862455 -0.00752011134729)
(0.0438241375829 -0.127483812117 0.00780745181685)
(0.042032334675 -0.11227535482 0.0108510979693)
(0.0202137771203 -0.0580261065898 -0.00876823817862)
(0.0202961607359 -0.0488105815472 -0.00808033579301)
(0.0499976688429 -0.111220740872 0.00588921177865)
(0.0227049420678 -0.0561490781169 -0.00917302397094)
(0.0477302580578 -0.127600141633 0.00563923030133)
(0.0461534003229 -0.111354621988 0.00799837873788)
(0.0218282885455 -0.0479694741604 -0.00814358390245)
(0.0215381823125 -0.0568271364592 -0.00920804507342)
(0.0466906063203 -0.145796997498 0.00757014495572)
(0.0209289591658 -0.0661376082869 -0.00963190378725)
(0.0216899828846 -0.0755575509665 -0.0105814958398)
(0.0483470843963 -0.165408904564 0.0062921063669)
(0.024066369297 -0.0624725338837 -0.0104928672172)
(0.051723660002 -0.145754307936 0.00564488275597)
(0.0229624755757 -0.0645637405055 -0.0102253945958)
(0.0226022266044 -0.0747428034442 -0.0112642681928)
(0.0544987179424 -0.164856255335 0.000446841648731)
(0.051995955409 -0.166293164639 0.00380961568048)
(0.0229406258983 -0.0718620423496 -0.0111702342515)
(0.059213628048 0.0688947441136 0.180426125972)
(0.0528230360779 0.052319669156 0.104751335462)
(0.050691035907 0.0809606431786 0.111983808379)
(0.038554518638 0.0833647375957 0.119015556747)
(0.0524442560505 0.0477940005901 0.179599419087)
(0.049464511027 0.0718019479792 0.18474163574)
(0.040508717565 0.0545261345731 0.112000283664)
(0.0460660471518 0.139661007334 0.13157281416)
(0.0570562737111 0.103301461873 0.19181802367)
(0.0472274610152 0.112223039504 0.124019269863)
(0.0338018568495 0.114423727481 0.130471411995)
(0.0439122258646 0.126120748445 0.204640660567)
(0.0467801936071 0.106537383356 0.196797998464)
(0.0319918142585 0.140874107423 0.139455398216)
(0.0115361528207 0.11501667134 0.0392903208357)
(0.0202679065904 0.112333568495 0.071533062126)
(0.0206128831257 0.129962253691 0.078382032146)
(0.0127372700634 0.098980276792 0.0358917583249)
(0.0113741279105 0.121273695797 0.0397775653636)
(0.0188568916913 0.154480220731 0.079350219575)
(0.0209411869526 0.142173230886 0.0750347540791)
(0.0106577739349 0.135551589311 0.0443056267408)
(0.0146811998105 0.107992419159 0.0354032816672)
(0.0268493351262 0.110409968642 0.0672562792812)
(0.0262816733817 0.126795512116 0.0718286873035)
(0.0163807291284 0.0941461837032 0.0318454884083)
(0.0149467037534 0.0727381801882 0.0288223546139)
(0.0224814066716 0.0980150263322 0.0668021016161)
(0.0129887305947 0.0852806195437 0.0318914054054)
(0.0242965140523 0.0834935696042 0.0628195065322)
(0.0260819568695 0.0436719458185 0.0203115573883)
(0.0384791215123 0.0646355115993 0.0525963006782)
(0.0251431691785 0.0559148188537 0.0225310417512)
(0.0205061411732 0.0579301233042 0.0240575725311)
(0.0336367704562 0.0517714040285 0.0524130095502)
(0.0322095702535 0.0664051433709 0.0559495977847)
(0.0220164721411 0.0458976854692 0.0220338977044)
(0.0162567431612 0.0600678351092 0.0262990494742)
(0.0278707816405 0.0538167308645 0.0557869429701)
(0.0260908626849 0.068345626819 0.0592058949648)
(0.0179334015559 0.0479372271884 0.0241452765105)
(0.0224471445715 0.0795289922501 0.027053363544)
(0.0367607353782 0.0794342372992 0.056372889723)
(0.023969523661 0.0677709821559 0.0251485486052)
(0.0191876383318 0.0699188146062 0.0265217108739)
(0.0289401622658 0.0956924035057 0.0627492848787)
(0.0173423668699 0.0818332893646 0.0288048145886)
(0.0305024965043 0.0814135749285 0.0594035916341)
(0.0207767937604 0.0237205927947 0.0200061555083)
(0.030069358352 0.0384923868971 0.0522269230146)
(0.0193676893666 0.0357020883955 0.0217316980987)
(0.03165137177 0.0242031787987 0.0493400102612)
(0.0755710182043 0.0427523476141 0.28160864576)
(0.0753102055771 0.0847724406967 0.292333140957)
(0.0774374409955 0.0640373004185 0.389486103402)
(0.0834375703827 0.0358700492197 0.392369274786)
(-0.00448432517351 0.0374771663946 0.00551215998096)
(0.0790087762699 -0.288408005213 0.187142891512)
(0.0393625772518 -0.238470556572 0.0139027921759)
(0.0471502153717 -0.22932385748 0.00541495598201)
(0.0508342722945 -0.228906065843 0.00303965676726)
(0.0624674008012 -0.299927152034 0.0907077262595)
(0.0852167269545 -0.295367005431 0.184973905239)
(0.0711261364191 -0.303288516431 0.0856175374725)
(0.0174677097975 -0.132173232998 -0.0165109309418)
(0.041200852769 -0.234311070606 0.0104955917738)
(0.0209388243172 -0.119040215521 -0.014260611584)
(0.0437797747185 -0.231161139871 0.00745901652378)
(0.0217490581889 -0.109373133628 -0.0137020735272)
(0.0201546572756 -0.112701486286 -0.0141703759559)
(0.0225050430581 -0.10722073162 -0.0142064200165)
(0.0341991482023 0.0526338629912 0.188835802011)
(0.0600993093224 0.0473425230094 0.286562633232)
(0.038096803982 0.0166206547025 0.179660154356)
(0.0685732633174 -0.0162845713004 0.270999947246)
(-0.00252147700866 0.0241928605021 0.00449317581721)
(0.0233733492759 0.130567398514 0.216736233997)
(-0.0128115776645 0.0675745358769 0.0130339950311)
(0.0882327009243 0.0415199632711 0.526945223551)
(-0.000844170688357 0.0138838251097 0.00239974020744)
(0.04935204184 -0.0720649568169 0.172014874672)
(0.097327740456 -0.044738384092 0.521232764985)
(0.0550128709289 -0.116328153477 0.17194913132)
(-0.0062128504152 0.0520507753498 0.00815240659396)
(-0.000868668945817 0.0147365828586 0.00200673363285)
(0.0118723144352 0.103267494837 0.0786511971811)
(0.00369675258846 0.073089842965 0.0610807319484)
(-0.00575188083029 0.0423323652901 0.00776325842415)
(-0.00240596114001 0.101611280422 0.0721752679977)
(0.016866269121 0.0578968240308 0.0623304659246)
(-0.000940075828736 0.0193599679858 0.00385237812379)
(0.0040308521629 0.128831838463 0.0718965152293)
(-0.00737620093872 0.0577158248108 0.00994497237655)
(-0.0076969681091 0.0479173862183 0.00932328871556)
(-0.011227016052 0.161695355585 0.0899829042574)
(-0.00383847482524 0.137164349094 0.0823372841431)
(-0.00351331468335 0.0290884937939 0.00531244103847)
(-0.00269973889648 0.155303053455 0.0811467519197)
(0.0324131792559 -0.0219875719693 0.0438592056832)
(0.036100131229 -0.0690922522147 0.0291670937372)
(0.0253383852955 -0.00353671046837 0.0507155664369)
(0.00497237223641 0.0487583013163 0.0704393082999)
(0.0190176321888 0.0421515007348 0.0588599611797)
(0.0120424825524 0.00162723583105 0.057924852037)
(0.0300911513634 -0.00545492453738 0.0468750326134)
(0.0279322676455 -0.020256053474 0.0482259712329)
(0.0216006758085 -0.0662675722331 0.0458227879956)
(0.0145536775194 -0.0154201952593 0.0549999840396)
(0.0332799194348 -0.0694302849493 0.0361151355413)
(0.0372008475419 -0.084684876126 0.0229936057391)
(0.0414151819233 -0.129026996585 0.0105789372737)
(0.0243557032035 -0.0849996183518 0.0442873238414)
(0.0311666581674 -0.142025517442 0.0357611116365)
(0.0348051346092 -0.0866971584726 0.0311189908647)
(0.0382056047726 -0.132157382243 0.0139030459896)
(0.104409149318 -0.0824012592166 0.521974302723)
(0.0833876721332 -0.136467582856 0.282939001656)
(0.0904576782406 -0.109604674111 0.389108197031)
(0.0669410215416 -0.199414621099 0.174248382594)
(0.0933941790166 -0.186204612393 0.277599525253)
(0.0386832718751 -0.150099697113 0.0128411471842)
(0.0341140057902 -0.163457789995 0.0322429613706)
(0.0429763336087 -0.146826170895 0.00986041705458)
(0.097394263885 -0.139633536007 0.397953946697)
(0.0723132738175 -0.060358354497 0.274917150667)
(0.0767015636436 -0.0181725733503 0.376457801505)
(0.0826013284148 -0.0506630228204 0.384813523079)
(-0.00118045019227 0.0580783824826 0.0207652827496)
(-0.00305216747733 0.0525088140066 0.0207289693878)
(-0.00301879233616 0.0303868216868 0.0056117838367)
(-0.00220658225223 0.0173348357704 0.00289528406096)
(-0.00418541149101 0.0643131733333 0.02505263211)
(-0.000367143870821 0.0432227246604 0.0136466413213)
(-0.00139701332642 0.0255900427492 0.00447820129661)
(-0.0130192669171 0.123676755838 0.0357815991912)
(-0.0109895618105 0.0639689367821 0.0119218674303)
(-0.0105784692901 0.061266033616 0.011798018258)
(-0.019609563816 0.139298636518 0.040068648131)
(-0.01659240617 0.12783243768 0.0382349136558)
(-0.00925627744039 0.0585661061513 0.0110567357343)
(-0.0159717923414 0.134620935727 0.0377038382382)
(0.00128865003697 0.0194564964771 0.00536010419029)
(-0.000781240195278 0.0346084047857 0.013243243231)
(0.000153749145982 0.00642108847467 0.001117392679)
(0.000933128840193 0.00811298574081 0.00175011755541)
(0.00113791751124 0.0274510752153 0.00768419941051)
(0.00110775547901 0.0246511289713 0.00987685881429)
(0.0415712830179 -0.0409356033316 0.102419224952)
(0.0455528651748 -0.0438796605193 0.174384033795)
(0.0364169823964 -0.0708731118162 0.0994458786047)
(0.0559869766056 -0.0759021930257 0.16907881946)
(0.0326051624336 -0.0373812011613 0.106844109799)
(0.0524174632476 -0.0477802398584 0.172346842172)
(0.0448613973824 -0.0743588396296 0.0936956757286)
(0.00693758200976 -0.0136224093533 -0.00164228193823)
(0.00731244056564 -0.0197593044935 -0.00244300035214)
(0.0059203924787 -0.013275927749 -0.00125596125489)
(0.00823829317122 -0.0199123784786 -0.00272846336135)
(0.0417663933226 -0.111975519916 0.0965746308003)
(0.0613125201408 -0.120529245273 0.168647111067)
(0.0606558127731 -0.150031123537 0.175658641705)
(0.0461374644824 -0.150074970752 0.0917006728838)
(0.0493724888487 -0.115515720248 0.088392973943)
(0.052396959224 -0.152878320441 0.0814595757463)
(0.0670120115413 -0.154808950318 0.171490265879)
(0.0103749619825 -0.0329858730429 -0.00458400003957)
(0.00827740646104 -0.0263337613197 -0.00340799192576)
(0.00912210054275 -0.0263082893726 -0.0036839559256)
(0.00957791148103 -0.0335550055632 -0.00448974196407)
(-0.00220887301352 0.0446813426259 0.00663873421732)
(-0.00503233363635 0.11720779011 0.0292656767402)
(-0.00047749426727 0.104240151197 0.0258471380544)
(0.00350501348021 0.0618465275876 0.0132605669005)
(-0.00412963064511 0.0326234284294 0.00362747459576)
(-0.00108412133808 0.0844201689547 0.0184269375889)
(-0.00458839113686 0.0716261145934 0.0235053491816)
(-0.00516327357596 0.0366342369504 0.00717893606083)
(-0.00886292939762 0.0894188524773 0.0299761645336)
(-0.00415321591208 0.0394889255309 0.00725951368314)
(-0.00761722506917 0.0772680138413 0.0271881942878)
(-0.00543489659344 0.0849052341763 0.0273628607186)
(-0.00446357985955 0.033086585406 0.0065327339462)
(0.00101779321794 0.0468072131182 0.0128957938724)
(1.38450932665e-05 0.00944598198734 0.000964193922091)
(0.00313978273585 0.0293975526354 0.0051486677704)
(0.00135049287142 0.0363341266352 0.00736266928389)
(0.00315665338028 0.0363137192473 0.00702918765035)
(0.00015681399012 0.0147241554548 0.00277620195899)
(-0.000902421837877 0.0596011433456 0.0154553076768)
(-0.000870998983719 0.0609590113226 0.0134941182024)
(-0.00180726114573 0.0337763301039 0.0053769766002)
(-0.000870780771814 0.0131894940623 0.00115401071933)
(-0.0017926646236 0.0772311748796 0.0234009793518)
(0.00248053557055 0.049927887308 0.0074634248719)
(-0.00312661498874 0.0234890373614 0.0032734806831)
(-0.00908460809967 0.119262397689 0.0341106875466)
(-0.00943540659028 0.0610577594821 0.0106545435188)
(-0.00502885134167 0.0521325044455 0.00921278358066)
(-0.00834174187749 0.12523912004 0.0338824349471)
(-0.00482130734686 0.112941323295 0.0312852172719)
(-0.00721486454577 0.0559626149297 0.0099291197057)
(-0.0120288786641 0.130391765337 0.036212694555)
(-0.0100286518972 0.111371619105 0.0349698337844)
(-0.00911780053755 0.0549807374315 0.0103087598787)
(-0.0115771603846 0.101946799867 0.0341053453869)
(-0.0063972991244 0.045227505939 0.00890865083648)
(-0.0133978560562 0.114971802041 0.0374168922783)
(-0.00853650656134 0.0977052902929 0.0316498948569)
(-0.00762117764559 0.0526579946354 0.00966892119008)
(-0.00631903544477 0.106555095222 0.0325846554722)
(-0.00111432408663 0.0745771837106 0.0190605364416)
(-0.00491937346116 0.044984382161 0.00685340235126)
(-0.00524797984776 0.040526500497 0.00742278025885)
(-0.0039389577212 0.0991877638493 0.0279501074816)
(-0.00550306783931 0.0905862584383 0.0278641450474)
(-0.00598065048337 0.0497518441089 0.00843800699387)
(0.00400560809743 0.0263876921296 0.00384218339408)
(0.00251632324582 0.0325734745827 0.0051354093939)
(0.000448104359482 0.0487562579624 0.0100995836987)
(0.00332296888154 0.0406347607488 0.00679808456884)
(0.021909731037 -0.012871138465 0.0149588386924)
(0.0336630594789 -0.0382879853635 0.0401752756067)
(0.0226839583617 -0.02548322562 0.012549529664)
(0.0101008707368 -0.0140207267747 -0.00264498180224)
(0.0109773464924 -0.0141173624144 -0.00224402182541)
(0.00878805543948 -0.00248993752529 -0.000942242033943)
(0.00943954269582 -0.00812897479852 -0.00173076444216)
(0.0355002974604 -0.0549557649974 0.0339714736385)
(0.0235709009926 -0.045070880362 0.00271228764083)
(0.0246989977655 -0.0392299040886 0.00805051107438)
(0.00274772131467 0.017423730061 0.00360489098855)
(0.0029751102814 0.021532905379 0.00359098394652)
(0.00236287056468 0.023760677057 0.00546894476326)
(0.0040507230027 0.0158034483652 0.00248048391082)
(0.00263844106062 0.0119385508521 0.00310010478189)
(0.000964610936839 0.00385999147795 0.000490582244256)
(0.00289425425723 0.00616518754256 0.00268439314243)
(0.00215618213522 0.0149335956932 0.00474857655504)
(0.00356747490591 0.00550903442302 0.00158911406443)
(0.00369713410833 0.0107322643061 0.00218781368739)
(0.00610569517868 0.00401201025217 0.000509289850396)
(0.00509098386745 0.00979916039649 0.00145789070414)
(0.00466230182424 0.00469596306087 0.00104538323975)
(0.0284745648982 0.0100073816733 0.0497566446106)
(0.0200035625701 6.30222968315e-05 0.0174231583836)
(0.0185339832321 0.0127749347944 0.0192813667994)
(0.00474452466215 0.0201433503359 0.0027915919819)
(0.00567772375068 0.0147758650388 0.00183126514248)
(0.00761113052749 0.00324812118315 -4.4817222822e-06)
(0.00671933084743 0.00901900426335 0.000868120308212)
(0.00804477027235 -0.0140862743405 -0.00201694385709)
(0.0109772598421 -0.0184502968836 -0.00302499416925)
(0.0094423673086 -0.0141491723105 -0.00226569271838)
(0.00923235109218 -0.0198832056993 -0.00304744361722)
(0.00578409726723 -0.00720309902345 -0.000614048426682)
(0.00402944316061 -0.000300088353552 0.00114941368805)
(0.0050840748473 -0.00683890549766 -0.00019920602181)
(0.0047134711506 -0.000822396531019 0.000447981800454)
(0.00688622417064 -0.00766805005855 -0.000986374328501)
(0.00737899885714 -0.00193550218511 -0.000449769198341)
(0.00832365658404 -0.00803166567842 -0.00133872047857)
(0.00584655495614 -0.00142352356302 1.08071644059e-06)
(0.0186272695127 -0.0381041555031 0.0141653117282)
(0.0318610298896 -0.0538628470872 0.0404177867484)
(0.0240788065898 -0.049754811416 0.00935262685517)
(0.0288560496885 -0.0693410833779 0.0406659353886)
(0.0217114753313 -0.0388142772783 0.0124508359088)
(0.0271303180191 -0.0529933972272 0.0441436691311)
(0.0206954122764 -0.0513985416216 0.0118553706873)
(0.00818535332987 -0.0126236867488 -0.00290444784543)
(0.0070320109692 -0.0109468944962 -0.00145884280255)
(0.0214794305981 -0.0512958617408 -0.00316993274333)
(0.0382517951303 -0.0989936209602 0.0199464807475)
(0.0188683623556 -0.0554762030023 -0.004936633603)
(0.0207290591253 -0.0620988872712 -0.00973311893919)
(0.0391922288989 -0.114025795224 0.0139298670024)
(0.0177683786006 -0.0561455690512 -0.00879198575747)
(0.0119607908888 -0.031570009563 -0.00409726920628)
(0.00969869242236 -0.0230536031 -0.0033467801377)
(0.00974651464564 -0.0255160735232 -0.00392461460143)
(0.0113565418701 -0.0228433904626 -0.00300227191254)
(0.0214775893244 -0.0803242745278 0.0096610683439)
(0.0173798006118 -0.0642980382699 0.0127739268457)
(0.0266966236259 -0.103559282009 0.0424706883302)
(0.0280612351981 -0.086003347104 0.0416290921796)
(0.0198575177602 -0.0648596384958 0.0116194804303)
(0.0195766803536 -0.080048712853 0.0111590104982)
(0.030065349964 -0.104285025163 0.039038160504)
(0.0125791195525 -0.0371346146493 -0.00544420668764)
(0.0111277284596 -0.046645535371 -0.00678171316289)
(0.0109209306346 -0.0402020088807 -0.00564473003854)
(0.0103427354352 -0.0414875428421 -0.0056523753758)
(0.0252871486489 -0.0920002877858 0.00635487227881)
(0.0295780770007 -0.123252752762 0.0395251020754)
(0.0225913151752 -0.109813473324 0.00556254939269)
(0.0339720093266 -0.140737943518 0.0293433548914)
(0.0224825574945 -0.0955172399036 0.00885385428304)
(0.0328113719086 -0.122620862191 0.0351773054742)
(0.0232903730325 -0.105776027393 0.00142217383633)
(0.0114511175202 -0.0277968636684 -0.00442169807996)
(0.00661622977348 -0.0127962473388 -0.00190209440092)
(0.0088504433704 -0.0237310941742 -0.00475156163356)
(0.0242447383128 -0.0795623487964 0.0056508571414)
(0.0232445376459 -0.0621306132564 0.00476141886557)
(0.0311221117265 -0.0872179918888 0.0374395364428)
(0.036418547904 -0.102868538014 0.0271160714161)
(0.0214145188518 -0.0642661165646 0.00861518850178)
(0.0330016791856 -0.104981821878 0.0331538608684)
(0.0246723989699 -0.070806028697 0.000726857428994)
(0.0238638106189 -0.0820800975553 0.000178854366517)
(0.0360119955524 -0.137097635497 0.0212335028017)
(0.0195694238571 -0.0687979792396 -0.0102992110759)
(0.0361223996355 -0.117645976197 0.0212561898575)
(0.0344806075285 -0.121236816479 0.0289390933282)
(0.0179731217692 -0.0671258687851 -0.00671668629417)
(0.021658899986 -0.0880327155765 -0.00674585890826)
(0.0516735642083 -0.20059663258 0.0913326279206)
(0.0581319815399 -0.202693820056 0.0821034698312)
(0.0730443528239 -0.20432339275 0.171085063294)
(0.0732213385041 -0.229670837529 0.170346459571)
(0.0549070937797 -0.240605727691 0.0778562900018)
(0.0795948071308 -0.235610897879 0.166634466023)
(0.0605591413508 -0.243952424145 0.0703523995287)
(0.0369010835923 -0.154345869692 0.0197209926376)
(0.0161649782974 -0.07606857921 -0.0104860380904)
(0.0180635762716 -0.0908453774258 -0.0079769062383)
(0.017325721946 -0.089368549706 -0.01183303871)
(0.0413711115165 -0.16760829715 0.0116182199149)
(0.038803416008 -0.170741762258 0.0149150738387)
(0.0200254373333 -0.0805548702726 -0.0102601031506)
(0.0139131766693 -0.0531920663727 -0.00675693829698)
(0.0136165770586 -0.038623954639 -0.00485293329363)
(0.00766304496036 -0.021318019117 -0.00282946191767)
(0.0133556129056 -0.0448545803925 -0.00673840484665)
(0.0264368057112 -0.127983841308 0.00222919601564)
(0.0364225432503 -0.159942728467 0.0264037523313)
(0.0261547093963 -0.11357471102 -0.00260864339795)
(0.01778893561 -0.106014331701 -0.0099529864526)
(0.0353676615845 -0.181700503798 0.0315758547749)
(0.0362160477256 -0.176082285452 0.0231507016711)
(0.0261183395453 -0.127285670373 -0.00154943619674)
(0.00817606393896 -0.0196720849505 -0.00211999589703)
(0.0201452733938 -0.0686967611102 -0.0101139604154)
(0.0448310783039 -0.165773646301 0.00843186613504)
(0.0201947690893 -0.0770106619553 -0.0107028602415)
(0.0383448403145 -0.218144333644 0.017762358862)
(0.0447261777983 -0.204545297619 0.00354065871113)
(0.0481601639089 -0.203879542919 0.00183161513457)
(0.00970783520532 -0.0306217046105 -0.00302688980841)
(0.0096835799722 -0.0381584956563 -0.0070703963456)
(0.0204538176465 -0.107238467057 -0.015506482483)
(0.0182806593281 -0.135949981807 -0.0118132056552)
(0.0390482771349 -0.211767356193 0.00925728595447)
(0.0370495079504 -0.202112254532 0.0209378952054)
(0.0383541154918 -0.195320244087 0.0130294490977)
(0.01577527722 -0.114535304376 -0.0153996350857)
(0.0232078386266 -0.135090352951 -0.011270678434)
(0.0217314244031 -0.0965938334781 -0.0138070921166)
(0.043170246601 -0.188045880377 0.00689219171416)
(0.0420866871415 -0.20685087396 0.00617875445371)
(0.0207660994806 -0.0987910380284 -0.0135477881921)
(0.0407649870469 -0.190917809425 0.00968502461662)
(0.0204509775278 -0.103319839899 -0.0143795335729)
(0.0209240847247 -0.0898924234288 -0.0122572961256)
(0.0473774638959 -0.187355176253 0.004980060162)
(0.0220386551462 -0.0963798048522 -0.0138463434423)
(0.0222382703413 -0.087616996859 -0.0124952788072)
(0.0293445185942 0.0869019245326 0.129193695818)
(0.0195995285284 0.0582766681401 0.126289062534)
(0.0330435858842 0.0785431526154 0.193837489119)
(0.0405026063966 0.0500576137672 0.186043850122)
(0.0209182022668 0.0892206084821 0.134653928312)
(0.0379989646525 0.0742145450082 0.191113197667)
(0.0297253422851 0.0569854423095 0.121158297258)
(0.0590428215276 0.0910430595877 0.298170854415)
(0.0730969513206 0.0407614136287 0.389851186192)
(0.0652393797004 0.0676611681913 0.386072985068)
(0.0369586894692 -0.00446029778203 0.107391080142)
(0.0239167293984 0.0277797255589 0.117294497099)
(0.0450661554749 0.0135127905071 0.177679103506)
(0.0409371455312 -0.00555360590348 0.178343863473)
(0.034148289877 0.0250134871642 0.111937472429)
(0.02684721888 -0.0015363692153 0.111699459465)
(0.0482583327767 -0.00913163711243 0.176048006886)
(0.00174953523113 0.0856239762072 0.0423184261198)
(0.00576255572974 0.105493070441 0.0832379146909)
(0.0132396671638 0.088774039809 0.0713106974705)
(0.00435777728184 0.095414189939 0.0418988368802)
(0.00679110529751 0.0913431153216 0.075436190065)
(0.000672999766732 0.100376686752 0.0491129601928)
(0.00747387218562 0.081824567984 0.0356710231857)
(0.00513619383195 0.070120566251 0.0385979927637)
(0.0151693571637 0.0726961694292 0.0665760541088)
(0.011335183311 0.060578260159 0.0652445953633)
(0.0109706669695 0.0526817044136 0.0288926367469)
(0.00993326947675 0.0757241312267 0.0699939664846)
(0.00915159459722 0.0657905380893 0.0326203852147)