/*--------------------------------*- C++ -*----------------------------------*\
| =========                 |                                                 |
| \\      /  F ield         | OpenFOAM: The Open Source CFD Toolbox           |
|  \\    /   O peration     | Version:  2406                                  |
|   \\  /    A nd           | Website:  www.openfoam.com                      |
|    \\/     M anipulation  |                                                 |
\*---------------------------------------------------------------------------*/
FoamFile
{
    version     2.0;
    format      ascii;
    arch        "LSB;label=32;scalar=64";
    class       volVectorField;
    location    "0.01";
    object      U_0;
}
// * * * * * * * * * * * * * * * * * * * * * * * * * * * * * * * * * * * * * //

dimensions      [0 1 -1 0 0 0 0];

internalField   nonuniform List<vector> 
29767
(
(0.10178218568 -0.308111060759 0.173256580978)
(0.0991260549747 -0.248146170808 0.150601126798)
(0.0960409989606 -0.300981196336 0.181486799975)
(0.0873673335428 -0.302401157662 0.0667113715172)
(0.0822513439713 -0.300565451518 0.080010863049)
(0.0901754924827 -0.2416701984 0.159566739155)
(0.0815713111203 -0.253700636625 0.051118025829)
(0.0700220867559 -0.24996323345 0.0633475246497)
(0.0555979413079 -0.194160514938 -0.011156201054)
(0.026292082411 -0.0688822831906 -0.00946632072828)
(0.0609605192388 -0.225128289582 -0.00668322798007)
(0.0284311897134 -0.0971162792517 -0.0137817259607)
(0.0552280554885 -0.226283989777 -0.00065583843157)
(0.0245246934701 -0.102812374575 -0.014334345287)
(0.0257804563143 -0.0837668705503 -0.0136195937287)
(0.0221104656703 -0.0792773457728 -0.0119936028921)
(0.0543768600166 -0.200660796041 -0.00554872025519)
(0.061216945335 -0.179524829732 -0.0039216919624)
(0.0242501645072 -0.0900207133584 -0.0148425688164)
(0.0572455511691 -0.18701182799 -1.67687761699e-05)
(0.0282171975739 -0.0768551288021 -0.0127372702406)
(0.0238696685627 -0.0857494732146 -0.0125330550946)
(0.052712077072 -0.202415132146 -0.000839221306453)
(0.0234122077538 -0.09380957397 -0.0139210687196)
(0.0521402418954 -0.186640973279 0.00280949022168)
(0.0621007036933 0.0451752713421 0.174399890017)
(0.0546797876324 0.123405669666 0.197886801993)
(0.0662449445677 0.00817980927035 0.165873656605)
(0.0760986422768 -0.0831743405189 0.154654516758)
(0.0801393760562 -0.128470173597 0.155333733204)
(0.00712082435677 0.149731992996 0.0703434292617)
(0.0394338787896 0.0500169946885 0.0486672356678)
(0.0410154807682 0.0349168128563 0.0438095067996)
(0.0513526209703 -0.128345356725 0.0035608422931)
(0.0973774362667 -0.143480787077 0.280135536667)
(0.101381370456 -0.116062991857 0.39780299496)
(0.0675312132074 -0.20384715508 0.0749754464863)
(0.0900221787865 -0.213618507451 0.159414138915)
(0.0773323776003 -0.20709014168 0.0669380498348)
(0.083273476804 -0.208897902323 0.165843229602)
(0.0560172695208 -0.144574890711 0.00330412566659)
(0.109023667382 -0.19580951733 0.274105507649)
(0.107960733772 -0.148335831565 0.403771003486)
(0.0838719364449 -0.0217686337166 0.267030432302)
(0.0873024128243 -0.0669417152622 0.269394095414)
(0.0939469622535 -0.0566802244902 0.391077952354)
(0.0884256006883 -0.024540834716 0.384649027386)
(0.00165595971345 0.0658233774338 0.0129635919399)
(-0.00170897885114 0.0188331036155 0.00235020660091)
(0.00388869896452 0.0806505529397 0.0158844573436)
(0.0062163831034 0.0292160571492 0.00333902655333)
(0.00911142625093 0.0224180844261 0.0018069554034)
(0.00731559141829 0.0237156679272 0.00240570841288)
(0.00834138848378 0.0281046295682 0.00264008489236)
(0.0060926054347 -0.00397954742039 -0.00103026743596)
(0.0475938864806 -0.00763489291411 0.0985719573054)
(0.0565756230982 0.010949113672 0.171610458884)
(0.0563642036778 0.019388157309 0.0947462776276)
(0.0695184098624 -0.0155235549995 0.162935255768)
(0.0446906480209 0.0220722742198 0.103340671819)
(0.058589759662 -0.0103645015321 0.0880460818647)
(0.0597944692457 -0.0123995490531 0.169598470679)
(0.00903928938084 0.0128363183115 0.000756140628485)
(0.0100515877004 0.0170114963448 0.000963246721227)
(0.00835557253209 0.0182176579955 0.00150074762715)
(0.0103714042462 0.0111902582644 0.00036731494926)
(0.0514826721169 -0.0443097930675 0.092440837982)
(0.0635223403325 -0.0794790669868 0.0714868740895)
(0.0725281520111 -0.0550420043296 0.159108571936)
(0.0668146558872 -0.0794170490966 0.161753865036)
(0.0613611692709 -0.0465653850578 0.0810710365357)
(0.0632983952347 -0.0515475603037 0.165735578468)
(0.0538962257469 -0.0774303250021 0.0819759215191)
(0.0680548778417 -0.119521871787 0.0688284924479)
(0.0716098789876 -0.124336680539 0.161549421382)
(0.0578182314957 -0.117124821576 0.0769585366365)
(0.0611521628233 -0.155190832362 0.0714210579934)
(0.0863778819097 -0.163317633962 0.156635549666)
(0.0712105939247 -0.158122078947 0.063790969403)
(0.0773883021491 -0.158899885708 0.163857640837)
(0.00404204378865 0.0563443920795 0.00918923860897)
(0.00345229512378 0.0471728571465 0.00685765048098)
(0.000710971469038 0.0826659706312 0.0170765793569)
(-0.00147845888248 0.0258944489117 0.00484707686294)
(-0.00112753931408 0.0983498725168 0.0210250106894)
(0.00275584807659 0.0680338265248 0.00941001128004)
(0.00284742888394 0.0515968714486 0.00921842362203)
(-0.001929777455 0.0173733329574 0.00149268558379)
(0.00550840911045 0.0348435600059 0.00434121406867)
(0.0062679661158 0.0390025223579 0.00453584229454)
(0.00420920287065 0.0405901042576 0.00550208306846)
(0.00749003080537 0.0334887477937 0.00354862196713)
(0.0043517980214 0.0304223557415 0.00410040530837)
(0.00556297631055 0.0249246205427 0.00303558499999)
(0.0035753804607 0.0367101716431 0.00525226521256)
(0.00182996385763 0.0435525868087 0.00691838863191)
(0.00799452192799 -0.00334992093554 -0.00146326468692)
(0.00524008185398 0.000260089000502 -0.000641825978746)
(0.00954230240777 -0.00232521721646 -0.00126125923301)
(0.0248807155942 -0.0250541345443 0.00885115910467)
(0.0367738714347 -0.022667443764 0.0385590993123)
(0.0251998149065 -0.0128161932811 0.0120190785188)
(0.0376485311657 -0.0385470470227 0.0337916967393)
(0.00995010484498 -0.0100403812602 -0.00180076819569)
(0.00584153413274 -0.00564975447044 -0.00120157656653)
(0.0201991689416 -0.0264769141863 -0.00302303498888)
(0.0417780809955 -0.0651212580598 0.0154192565444)
(0.0407210756708 -0.0525388478498 0.0207239530963)
(0.0185303853575 -0.0297386275142 -0.00557733968539)
(0.00982431175372 -0.00762721805589 -0.0015845070111)
(0.0104295638285 -0.00248416671439 -0.00115986960335)
(0.0226181006077 -0.0204672521007 0.000848154406957)
(0.0399679932568 -0.0235411680661 0.0313299182215)
(0.0250894616673 -0.01298087652 0.00504706964169)
(0.0405216454955 -0.0379800824993 0.0260607434094)
(0.0249290650894 -0.0352391599359 0.00302611645047)
(0.0383052102339 -0.0670736664373 0.0218466530762)
(0.0385759926114 -0.0542893431178 0.0275835945112)
(0.0188853533455 -0.0357723516768 -0.00363663829689)
(0.00990735252834 0.00728802758238 -0.000136289225806)
(0.00749792894762 0.00220374423684 -0.000528411786341)
(0.0100282397851 0.00163055151083 -0.000712287257889)
(0.00902540547708 0.00492491235696 -0.000384193268274)
(0.022181624803 0.0114058629315 0.0175948525397)
(0.0348394111194 -0.00667791774435 0.0425599425304)
(0.0231281207603 -0.000982339254528 0.0153531055625)
(0.0335725328067 0.00860905670812 0.0460954117934)
(0.0073966198439 0.0138808999076 0.00125897519216)
(0.00642451141981 0.0192381540242 0.00208890581871)
(0.0243923719879 0.0219159393007 0.0170452275543)
(0.0270953377402 0.0318387929588 0.0170306740274)
(0.0355089933768 0.0365139861032 0.0483614835175)
(0.0234434879556 0.0338725874948 0.0193031379003)
(0.036579014204 0.0221526873509 0.0446699794785)
(0.0274434713115 0.019638532555 0.013902028585)
(0.00832896539662 0.00831856975839 0.000345723096382)
(0.00903709512471 0.00275963371092 -0.000390784102159)
(0.0256671553024 0.00991036205385 0.0133090498698)
(0.039093582411 -0.0081992742611 0.0356529024036)
(0.0260798679805 -0.00250360413301 0.0103288747926)
(0.0381596936573 0.00676000854605 0.0402614037137)
(0.0198530925862 -0.0420179810385 -0.0070847144182)
(0.0201943985592 -0.0335668462067 -0.00610044679521)
(0.0428552660293 -0.0803907221364 0.012764139309)
(0.0478262985886 -0.0950151251563 0.00834996394488)
(0.0202039280296 -0.0357545960955 -0.00667044825691)
(0.0443530962053 -0.0949130669506 0.0107449329693)
(0.0207992391418 -0.0408832030633 -0.00691494357684)
(0.0168360226594 -0.0465273967337 -0.00690054510254)
(0.0392435002493 -0.082081925754 0.0160506437559)
(0.0192354073806 -0.0393550665464 -0.00663235527579)
(0.0401359801272 -0.0965498743119 0.0136711629038)
(0.0195348278185 -0.0508953941842 -0.00751893675359)
(0.0437276914722 -0.127513058145 0.00782509244881)
(0.0419357410871 -0.112303063301 0.0108688094815)
(0.0201810639496 -0.0580420537736 -0.00876789812033)
(0.0202648057548 -0.0488267064636 -0.00808006986991)
(0.0499035537499 -0.11124989081 0.00590130486356)
(0.0226732883144 -0.0561666247862 -0.00917318241932)
(0.0476343450631 -0.127629945386 0.00565409717972)
(0.0460581722561 -0.111383109796 0.00801326149962)
(0.0217977672797 -0.0479867265525 -0.00814303796992)
(0.0215060564222 -0.0568439550399 -0.00920849386012)
(0.0465933719213 -0.145832321181 0.00759156195613)
(0.0208950587596 -0.0661564235699 -0.00963087373894)
(0.0216538496014 -0.0755808880743 -0.010581206331)
(0.0482473482335 -0.165452437198 0.00631599081489)
(0.0240337891791 -0.0624917016955 -0.0104925688648)
(0.0516269562089 -0.145789357423 0.0056636624499)
(0.0229289378032 -0.0645828188304 -0.0102252924519)
(0.0225661554486 -0.0747657630583 -0.0112650554534)
(0.0544015934794 -0.164898265769 0.000463732319471)
(0.051896485746 -0.166335539514 0.00383054510215)
(0.0229055097296 -0.0718846253043 -0.0111708958621)
(0.0590268529583 0.0689089076242 0.180489170232)
(0.0526572521497 0.052336428854 0.10480802958)
(0.0505240916524 0.0809864897619 0.112039116957)
(0.0383900307128 0.0833967635805 0.119081690232)
(0.052263015079 0.0478087995436 0.179683200602)
(0.0492813303554 0.0718195546171 0.184822167624)
(0.0403469486963 0.0545479622066 0.112066376841)
(0.0458932347283 0.139708092753 0.131630948614)
(0.056869864584 0.103323962391 0.191889029358)
(0.0470551340473 0.112258344965 0.12407967664)
(0.0336322877957 0.114462714861 0.13054454071)
(0.0437237840614 0.126146766393 0.204729098658)
(0.0465979945703 0.10656350193 0.196888392908)
(0.0318206566002 0.140924697479 0.139532747705)
(0.0114264978937 0.115089643302 0.0393284013767)
(0.0201210916772 0.112395423652 0.0715945863294)
(0.0204605991414 0.130031349627 0.0784459725699)
(0.0126316733073 0.0990449774779 0.0359308088408)
(0.0112565963272 0.121349369795 0.0398195736658)
(0.018696869783 0.154557701893 0.079415721797)
(0.0207856572678 0.142241849246 0.0750987634545)
(0.0105305463195 0.135632266205 0.0443502192732)
(0.0145764092464 0.108063580785 0.0354406296254)
(0.0267023963949 0.110466627932 0.0673123846094)
(0.0261292103855 0.126858582952 0.0718860410508)
(0.0162805530668 0.0942067051224 0.0318809469675)
(0.0148534664252 0.0727879443127 0.0288566023381)
(0.0223388869698 0.0980690828418 0.0668600091453)
(0.0128915251824 0.0853391796695 0.0319274535068)
(0.0241573600426 0.083541317242 0.062876362913)
(0.0259962482324 0.043698938266 0.020338453819)
(0.0383412561065 0.0646684221113 0.0526446861667)
(0.0250537532904 0.0559494219192 0.0225599988046)
(0.0204166799041 0.0579689535208 0.024087661395)
(0.0335020863002 0.051800405953 0.0524628454405)
(0.0320721699303 0.0664414480802 0.056000612645)
(0.0219294694896 0.0459287242038 0.0220622303033)
(0.0161666495484 0.0601104189114 0.0263317159198)
(0.0277365063023 0.0538492881603 0.055840472954)
(0.0259541208717 0.0683855862265 0.0592608069263)
(0.0178457147235 0.047972327007 0.0241761252316)
(0.0223515877415 0.0795782265937 0.02708517889)
(0.0366202153996 0.0794742218727 0.0564222152995)
(0.0238769966861 0.0678127677189 0.0251790208656)
(0.0190956641196 0.0699648512174 0.0265533565729)
(0.0287972659691 0.0957420979064 0.0628022579797)
(0.0172473934133 0.0818876048404 0.0288381319536)
(0.0303628641948 0.0814572903178 0.0594559002508)
(0.0206944430182 0.0237394894309 0.020033078951)
(0.0299378390751 0.0385166335815 0.0522785676257)
(0.0192832224682 0.0357293809015 0.0217606320641)
(0.0315220721427 0.0242191836157 0.0493894256922)
(0.0753848442131 0.0427490872859 0.28166960222)
(0.075135710049 0.0847720771848 0.292397399378)
(0.0772848092212 0.064011584206 0.389581025891)
(0.0832754267718 0.0358409143292 0.392452970844)
(-0.00449897032837 0.0375073660557 0.00552012639269)
(0.0787919484323 -0.288494112567 0.18731362259)
(0.0392158356818 -0.238565729702 0.0139624791189)
(0.0470331583924 -0.229404372151 0.00545883055703)
(0.0507225494925 -0.228983511708 0.00307401447543)
(0.0622652700789 -0.300025986118 0.090839102281)
(0.0849992892943 -0.295447143628 0.185124641281)
(0.0709354564182 -0.303378600524 0.0857381263032)
(0.0173960094892 -0.132238415812 -0.0165051525883)
(0.0410655299895 -0.234401022625 0.0105492863593)
(0.0208795718249 -0.119095789056 -0.0142561298976)
(0.0436532793887 -0.231245826576 0.00750759586803)
(0.0216997967648 -0.109419490201 -0.013699242493)
(0.0200997091322 -0.112751205573 -0.0141676805064)
(0.022458946395 -0.107264373506 -0.0142062796474)
(0.0340331332028 0.0526590604162 0.188973875568)
(0.0599157462548 0.0473441510532 0.286645573264)
(0.0379382849814 0.0166326021639 0.179804442979)
(0.0684001307452 -0.0162971044299 0.271095306194)
(-0.00254266167009 0.0242203215567 0.00450026431063)
(0.0232096989434 0.130604656047 0.216885884997)
(-0.012830881551 0.0676382311112 0.0130512103899)
(0.0881355457538 0.0414182660529 0.527000421034)
(-0.00086083862619 0.0139013209732 0.00240409584288)
(0.0491828618669 -0.0720826006816 0.172119235561)
(0.0971913117649 -0.0447824164859 0.521278821662)
(0.0548414517695 -0.116365777455 0.172043370181)
(-0.00623248238095 0.0520934170962 0.00816383706102)
(-0.000870411531312 0.0147449454103 0.00201003641032)
(0.011724906944 0.103330812644 0.0787274170598)
(0.00355122717042 0.0731490641 0.0611602479109)
(-0.00577198593466 0.0423746845072 0.00777535997918)
(-0.00256118178064 0.10168460932 0.0722613843372)
(0.0167304553534 0.0579365144589 0.0623996149535)
(-0.000947490240693 0.0193746672919 0.00385738796133)
(0.00388258102974 0.128913552071 0.0719701463463)
(-0.00739447002047 0.0577658600817 0.00995932374575)
(-0.00771660390381 0.0479644043078 0.00933649174154)
(-0.0113941228282 0.16179816448 0.0900757993645)
(-0.00399649681277 0.137252204363 0.0824222232257)
(-0.0035258063075 0.0291147905604 0.00531933967222)
(-0.00286177288617 0.155398646019 0.0812270750919)
(0.0322881652203 -0.021992763179 0.0439001671129)
(0.0359855479902 -0.0691096348051 0.0291941247518)
(0.0252096698852 -0.00353224928447 0.0507718406844)
(0.00481747021983 0.0487996667998 0.070537625347)
(0.0188848740653 0.042182349953 0.0589266656887)
(0.0118955173215 0.0016380463268 0.0580031249405)
(0.0299650151708 -0.00545280004285 0.0469217680364)
(0.0278038362223 -0.0202596039031 0.0482766491216)
(0.0214543324963 -0.066281746198 0.0458799282636)
(0.0144075674316 -0.015418418714 0.055070927829)
(0.0331553541817 -0.0694474230629 0.0361533044932)
(0.037091999583 -0.0847069917372 0.023017627342)
(0.041316346967 -0.129056969302 0.0106011614876)
(0.0242096615125 -0.0850201690569 0.0443433316747)
(0.0310199534341 -0.142060669991 0.0358183713896)
(0.0346838377211 -0.0867188055653 0.0311548113623)
(0.0380997423953 -0.132188403971 0.0139342832556)
(0.104275184108 -0.0824915483342 0.521998991408)
(0.0832202300265 -0.136514902813 0.283014974946)
(0.0903037935553 -0.109649486059 0.389258174903)
(0.0667504361841 -0.199473997282 0.174362746254)
(0.0931933262927 -0.186281077078 0.277697447317)
(0.0385783168159 -0.150137523291 0.012875450712)
(0.0339673457794 -0.163502245089 0.0323039196184)
(0.0428774544886 -0.146862556368 0.0098863330959)
(0.0972389171966 -0.13969817059 0.398092261772)
(0.0721365041453 -0.0603727274083 0.275000715841)
(0.0765532874131 -0.0182098664051 0.376569620613)
(0.08244627791 -0.0506968802833 0.384938109158)
(-0.00124420352789 0.0581324131772 0.0207936763588)
(-0.00312222367584 0.0525612505512 0.0207580131357)
(-0.0030396524957 0.0304188689075 0.00562122321046)
(-0.00222104971159 0.0173529801285 0.00289976390771)
(-0.00425958893166 0.0643731429971 0.0250864034651)
(-0.000419020559587 0.043264930194 0.0136670962298)
(-0.00141425495959 0.0256164410624 0.00448543603234)
(-0.0130990019768 0.123776463023 0.035823576993)
(-0.0110074160971 0.0640284357427 0.0119381752035)
(-0.0105966860711 0.061323597286 0.011813792676)
(-0.0196956378646 0.139412578421 0.0401141532788)
(-0.0166752976654 0.127936771076 0.0382796747654)
(-0.0092739312645 0.0586200540976 0.0110719102642)
(-0.0160544118283 0.134730296424 0.0377474598659)
(0.00125621056555 0.0194766770689 0.00537362914182)
(-0.000838000506572 0.0346471860831 0.0132645522801)
(0.000147277230548 0.00642649107131 0.00111972438561)
(0.000921023209368 0.00812210632877 0.00175353683214)
(0.00110018665393 0.0274777098142 0.00770090692262)
(0.00106090227015 0.0246786805054 0.00989429223667)
(0.041414832932 -0.0409529537346 0.102490637843)
(0.0453873564557 -0.0438901708957 0.174502561556)
(0.0362508152376 -0.0708950508691 0.099520777146)
(0.0558112489383 -0.0759209824294 0.169155489768)
(0.0324419587167 -0.0373967825417 0.106932468526)
(0.052246449636 -0.0477920964709 0.172437771789)
(0.0447008212235 -0.074382594128 0.0937548045011)
(0.0069088583782 -0.0136223705171 -0.00163727304561)
(0.00727993585809 -0.0197593726487 -0.00243787819416)
(0.00588817483685 -0.0132740029329 -0.00124989390138)
(0.00820897865424 -0.0199142308064 -0.00272435576038)
(0.0415989957633 -0.112011692222 0.0966459583023)
(0.0611358755526 -0.120566552479 0.168714218537)
(0.0604789412672 -0.15007405339 0.175756061931)
(0.0459654705259 -0.150114305781 0.0917750256379)
(0.0492110994943 -0.115551487193 0.0884485217712)
(0.0522330541568 -0.152916653518 0.0815174186702)
(0.0668314195558 -0.15485115183 0.171559911663)
(0.0103444978401 -0.0329915883836 -0.00458154806624)
(0.00824445713265 -0.0263360608606 -0.00340347578288)
(0.00909219024903 -0.0263119404589 -0.00368062631949)
(0.00954390390224 -0.033559487629 -0.004485870757)
(-0.00222349038984 0.0447173384993 0.00664742804596)
(-0.00510919864592 0.117293785975 0.0292977432291)
(-0.00054396950744 0.104318105308 0.0258763573261)
(0.00346949566507 0.0618925360324 0.0132793276025)
(-0.00414152979458 0.0326492631572 0.00363283858788)
(-0.00113860837393 0.0844859239155 0.0184487027636)
(-0.00465919812382 0.0716896103567 0.0235368872457)
(-0.00518449067692 0.0366716109239 0.00719001872102)
(-0.00894270334738 0.0894971374384 0.0300142500658)
(-0.0041715850796 0.0395271978318 0.00727080607292)
(-0.00769582591138 0.0773374895978 0.0272241650196)
(-0.00550757502666 0.0849788134156 0.0273980859999)
(-0.00448378744985 0.0331191958649 0.00654245877985)
(0.000975949349326 0.0468491213426 0.0129147096642)
(9.10238976606e-06 0.00945237784903 0.000966235500861)
(0.00311502368775 0.0294233335045 0.00516030548247)
(0.00132194817556 0.0363640876134 0.00737745704004)
(0.00312341798346 0.0363452129749 0.00704209377987)
(0.000148459187981 0.0147362585253 0.00278047900911)
(-0.000955173925476 0.0596558688152 0.0154753074141)
(-0.000913388048784 0.0610091110555 0.0135147684347)
(-0.00182281253367 0.0338084589487 0.00538491042334)
(-0.00087414027564 0.0131975227591 0.0011563468057)
(-0.00185642429132 0.077298533736 0.0234304443117)
(0.00244803664743 0.0499671021632 0.00747827754693)
(-0.00314052668669 0.0235117631365 0.00327820129348)
(-0.00916282654441 0.119356044035 0.0341504911358)
(-0.00945399789093 0.0611126947836 0.0106694661637)
(-0.00504567247682 0.0521768781918 0.00922555947397)
(-0.00842120150259 0.1253348813 0.0339199105424)
(-0.00489462605126 0.113027607809 0.0313213236074)
(-0.0072326843693 0.0560124667843 0.00994278256697)
(-0.0121109507623 0.130494402447 0.0362536720801)
(-0.0101064809819 0.111462562775 0.0350095911882)
(-0.00913666454238 0.0550331084832 0.0103232338627)
(-0.0116578429975 0.102033686819 0.0341452939174)
(-0.0064159462299 0.0452708759406 0.00892122828117)
(-0.0134790409453 0.115067113685 0.0374595444968)
(-0.0086126985931 0.0977876250442 0.0316869348364)
(-0.00763938299372 0.0527070937921 0.0096827604725)
(-0.0063934684961 0.106639878605 0.0326214359941)
(-0.00116813802125 0.0746392617349 0.0190840806455)
(-0.00493654549643 0.0450237828684 0.00686320403987)
(-0.00526654827831 0.0405638655861 0.007432832276)
(-0.00400744265938 0.0992660265557 0.0279817849996)
(-0.00557419038817 0.09066094056 0.0278965470073)
(-0.00599868536528 0.0497964112883 0.00844999656139)
(0.00398223439169 0.0264085212785 0.00385174300296)
(0.00249100738059 0.0325990741819 0.00514684500367)
(0.000417473685365 0.0487935933697 0.0101169853809)
(0.00329842181054 0.0406671020312 0.00681123717599)
(0.0218320668682 -0.0128707503275 0.014978190719)
(0.0335401241306 -0.0382981335099 0.0402120098169)
(0.022608937661 -0.0254881977194 0.0125662618801)
(0.0100834482347 -0.0140274173207 -0.0026455385624)
(0.0109556809623 -0.0141229168628 -0.00224318265212)
(0.00876548305569 -0.00249061739518 -0.000938443880086)
(0.00941703738619 -0.00813250448161 -0.00172817592762)
(0.0353802560791 -0.0549710017865 0.0340028729272)
(0.02351357234 -0.0450812417274 0.00271805394883)
(0.0246287494225 -0.0392391150772 0.00806240245234)
(0.00272047076172 0.017440941514 0.00361493575571)
(0.00295066991967 0.0215517319874 0.00360106351173)
(0.00233399969776 0.023782694896 0.00548178463777)
(0.00402713974444 0.0158173825583 0.00248909347435)
(0.00260943271616 0.0119539926308 0.0031108518605)
(0.000955982564653 0.00386421186893 0.000492214293646)
(0.00285954647363 0.00617702100676 0.00269498770858)
(0.00211636723456 0.0149518922771 0.00476163203179)
(0.0035390843884 0.00551885775187 0.0015975726011)
(0.00367127605202 0.0107442100344 0.00219646166953)
(0.00608223870461 0.00401713975344 0.000515512989116)
(0.00506769823525 0.00980868064109 0.00146537020839)
(0.00463665125497 0.00470336602204 0.00105253345866)
(0.0283469864734 0.010017531861 0.049807301792)
(0.0199236873256 6.98291707186e-05 0.0174467885642)
(0.0184524775446 0.0127893346193 0.0193074681575)
(0.00472174023856 0.0201591460645 0.00280026583681)
(0.00565510235679 0.0147870609155 0.00183871903887)
(0.00758855255167 0.00325090098456 6.33865572141e-07)
(0.00669679328413 0.00902580791952 0.000874402690367)
(0.00801836143201 -0.0140881741083 -0.0020130387883)
(0.0109533403235 -0.0184556542292 -0.00302368933246)
(0.00941837706975 -0.0141530806178 -0.00226298848367)
(0.00920557549107 -0.0198867204925 -0.00304456303176)
(0.00575570616737 -0.0072000697491 -0.000608033160154)
(0.00399581755214 -0.000291957031724 0.00115805016011)
(0.0050518163104 -0.00683405172817 -0.000192276161988)
(0.00468521290337 -0.000816417164303 0.000455209085606)
(0.00686008256891 -0.00766729634584 -0.00098140353514)
(0.00735516870666 -0.00193403022292 -0.000444685062947)
(0.00829950500028 -0.00803296221713 -0.00133472547663)
(0.0058207112596 -0.00141982422563 7.11158228223e-06)
(0.0185418079661 -0.038109823978 0.0141874599567)
(0.0317343836364 -0.0538773692448 0.0404591636814)
(0.0240040245814 -0.0497656792563 0.00936867781983)
(0.0287230597431 -0.0693573564744 0.0407104304472)
(0.0216330956392 -0.0388222483523 0.0124699357673)
(0.0269966615685 -0.05300676698 0.0441912759459)
(0.020611694596 -0.0514076127892 0.0118752639559)
(0.00817025570232 -0.0126322103526 -0.00290501525812)
(0.00701905165832 -0.0109556382157 -0.00145945813623)
(0.0214310123913 -0.0513092803844 -0.00316666395737)
(0.0381481905287 -0.0990179371292 0.0199695998712)
(0.0188270434345 -0.0554912317751 -0.00493462710625)
(0.0206938484189 -0.0621154477072 -0.00973288185175)
(0.039092134936 -0.114054029809 0.0139520848024)
(0.0177316529647 -0.0561611532503 -0.00879082714995)
(0.0119344695985 -0.0315766354083 -0.00409670405705)
(0.00967577866775 -0.0230599672138 -0.00334657828335)
(0.00971953650735 -0.0255212733035 -0.003922713977)
(0.0113377690082 -0.0228514815999 -0.0030029687236)
(0.0213889546684 -0.0803409050304 0.00968346113935)
(0.0172823464805 -0.0643084082727 0.0128004762257)
(0.0265504820493 -0.103583660414 0.042527423445)
(0.0279223128771 -0.086024551785 0.0416788205533)
(0.0197672213489 -0.0648714350057 0.0116428347137)
(0.0194793685482 -0.0800642856358 0.0111853399011)
(0.0299271343692 -0.104309511037 0.0390879603269)
(0.0125486590911 -0.0371427957998 -0.005443022188)
(0.0110917963093 -0.0466558166691 -0.00677979783636)
(0.010886310671 -0.0402094073662 -0.00564167210972)
(0.0103121740536 -0.0414973213101 -0.00565239079251)
(0.0252017435716 -0.0920220683325 0.00637587766751)
(0.0294316910635 -0.123283696267 0.0395822349805)
(0.0224954292522 -0.109841075982 0.00558694018449)
(0.0338360810404 -0.140771684466 0.0293922320136)
(0.0223864553678 -0.0955389637752 0.00888007368736)
(0.0326741923428 -0.122651273135 0.0352270536233)
(0.0232070269524 -0.105801779367 0.00143974818459)
(0.0114289503517 -0.027804508261 -0.00442244753558)
(0.0066014941529 -0.0128045300541 -0.00190265057324)
(0.00883028600194 -0.023740235359 -0.0047523645206)
(0.0241674127304 -0.0795788022294 0.00566630549097)
(0.0231741685354 -0.0621436509883 0.00477427857937)
(0.0309908496051 -0.0872396457154 0.0374822403222)
(0.0363028583521 -0.102892420655 0.0271500493379)
(0.0213331159462 -0.0642790347094 0.00863293931601)
(0.0328728838299 -0.105005841637 0.0331959485609)
(0.0246149893811 -0.0708217606768 0.000734426766377)
(0.0237991465936 -0.0820983470387 0.000188255968706)
(0.0358916731637 -0.137130119044 0.0212718050825)
(0.0195284934145 -0.0688158193011 -0.0102966086129)
(0.0360127436054 -0.117674898537 0.0212881323534)
(0.0343562701417 -0.121265740083 0.0289794235806)
(0.0179266393967 -0.0671431553436 -0.00671204341985)
(0.0216014229153 -0.0880547410722 -0.00674032427439)
(0.0514955254654 -0.200653064271 0.0914267095522)
(0.0579636772697 -0.202747117134 0.0821820829192)
(0.0728497126771 -0.204380126716 0.171174500612)
(0.0730185824071 -0.22973739352 0.170477221079)
(0.0547193062103 -0.24067433882 0.0779516414786)
(0.0793877168108 -0.235674371033 0.166741297641)
(0.060380333268 -0.244017638962 0.0704333882442)
(0.0367837924701 -0.154386454801 0.0197623808096)
(0.0161245649267 -0.0760886453727 -0.0104830873576)
(0.0180115403117 -0.0908715224558 -0.00797235424214)
(0.0172766869982 -0.0893975328225 -0.0118300146537)
(0.0412654905145 -0.167654995776 0.0116556221143)
(0.0386874469146 -0.170791239842 0.0149584365785)
(0.0199850781746 -0.080580124961 -0.0102576822197)
(0.0138774545725 -0.0532060281621 -0.00675629566129)
(0.0135909554496 -0.0386359851833 -0.0048540239414)
(0.00764266129371 -0.0213285802349 -0.00283004268753)
(0.0133247564053 -0.0448693795369 -0.00673965683026)
(0.0263432257129 -0.128020561942 0.00225304916786)
(0.0362898814719 -0.159985314501 0.0264550110545)
(0.0260835387914 -0.113607108485 -0.00259625362566)
(0.0177265692979 -0.106049698119 -0.00994554550155)
(0.0352230720788 -0.181754835841 0.0316390967866)
(0.0360870381932 -0.176134781349 0.0232026898573)
(0.0260362794881 -0.127327095899 -0.0015330490263)
(0.00815832814176 -0.0196817289249 -0.00212055567578)
(0.0201099353433 -0.0687160460554 -0.0101131743656)
(0.0447303332572 -0.165818426748 0.00846040983817)
(0.0201575598594 -0.0770345401995 -0.0107027401227)
(0.0382020704395 -0.2182224291 0.0178192781883)
(0.0446144457684 -0.204610158985 0.00357746814497)
(0.048052742455 -0.203942041397 0.00185967313102)
(0.00968346605462 -0.0306382031888 -0.00302752161981)
(0.00965514179608 -0.038175446524 -0.00707211125747)
(0.0203967072232 -0.107279418984 -0.0155019880688)
(0.0182078390815 -0.13600992337 -0.0118065295616)
(0.0389185865561 -0.211840139675 0.00930505803034)
(0.0369054975576 -0.202180148561 0.0209975363168)
(0.0382258319909 -0.195384597868 0.0130794793746)
(0.015715731319 -0.114581510909 -0.0153971777701)
(0.0231312546766 -0.135142949057 -0.0112602470127)
(0.0216828297 -0.0966294729398 -0.0138049313008)
(0.0430619307182 -0.188103449135 0.00692952293418)
(0.0419662797661 -0.206919421339 0.00622110722472)
(0.0207205599067 -0.0988289386103 -0.0135468384082)
(0.0406471603722 -0.190978554194 0.00972821337864)
(0.0204002364675 -0.10336099793 -0.0143786233487)
(0.0208816072305 -0.0899243548436 -0.0122552680119)
(0.0472736162002 -0.187410553361 0.0050087737598)
(0.0219962785063 -0.0964156546201 -0.0138475616611)
(0.0221990232595 -0.0876475946294 -0.0124953866198)
(0.029182323325 0.086940852752 0.129288133622)
(0.0194330584004 0.0583089571469 0.126404271518)
(0.0328741937668 0.0785729840104 0.193965703071)
(0.0403257882216 0.0500800016656 0.186159826634)
(0.0207511327681 0.0892654807966 0.134766032609)
(0.0378197247023 0.0742381995402 0.19122323117)
(0.0295653311731 0.0570156711642 0.121253431178)
(0.0588858851509 0.0910483225803 0.298246851755)
(0.0729538151249 0.0407363693993 0.389956164886)
(0.0651149924749 0.0676569521951 0.386172083162)
(0.0368044537554 -0.00446184454259 0.107478841971)
(0.0237588096684 0.0277974671716 0.117409961105)
(0.0448978749232 0.0135221802782 0.177797395913)
(0.0407759532975 -0.00554965619814 0.178483996508)
(0.0339951820809 0.0250279875281 0.112032336207)
(0.0266866206254 -0.00153539774953 0.11180595339)
(0.0480893087142 -0.00913023613576 0.176160725757)
(0.00162814583691 0.0856896167218 0.0423706339174)
(0.00560615210893 0.105559799381 0.0833306562083)
(0.0130974647695 0.0888304705394 0.0713845256664)
(0.0042470477544 0.0954833348689 0.0419445641305)
(0.0066394250004 0.0914032244791 0.0755229505132)
(0.000545021465569 0.100451091199 0.0491707599637)
(0.00736846917145 0.0818833933795 0.0357145865794)
(0.00502329526457 0.0701767446188 0.038647599754)
(0.0150311056731 0.0727436417866 0.0666471860725)
(0.0111906737491 0.0606190853815 0.0653246613353)
(0.0108743168936 0.0527250103078 0.0289317639601)
(0.00978561549986 0.07577588638 0.0700766484639)
(0.00905179421781 0.0658410781241 0.0326629279426)