/*--------------------------------*- C++ -*----------------------------------*\
| =========                 |                                                 |
| \\      /  F ield         | OpenFOAM: The Open Source CFD Toolbox           |
|  \\    /   O peration     | Version:  2406                                  |
|   \\  /    A nd           | Website:  www.openfoam.com                      |
|    \\/     M anipulation  |                                                 |
\*---------------------------------------------------------------------------*/
FoamFile
{
    version     2.0;
    format      ascii;
    arch        "LSB;label=32;scalar=64";
    class       volScalarField::Internal;
    location    "0.01";
    object      V0;
}
// * * * * * * * * * * * * * * * * * * * * * * * * * * * * * * * * * * * * * //

dimensions      [0 3 0 0 0 0 0];

value           nonuniform List<scalar> 
29767
(
2.90705310183e-11
2.89042912954e-11
2.89841984467e-11
2.81597839175e-11
2.72687176702e-11
2.86295298877e-11
2.7546562435e-11
2.74778412884e-11
3.34060581686e-12
2.23486070149e-12
3.34089564795e-12
2.55969384159e-12
3.35495649332e-12
2.83036618637e-12
2.89775255802e-12
2.40887015219e-12
3.31508968716e-12
3.36825599052e-12
2.76776931473e-12
3.35748913987e-12
2.62733083912e-12
3.00704048785e-12
3.39443922562e-12
2.94332223856e-12
3.43378581704e-12
2.8899285327e-11
2.88247709318e-11
2.9011839281e-11
2.90791789977e-11
2.88800099477e-11
2.8727182657e-11
3.48965657869e-12
3.49314258633e-12
3.44233405918e-12
2.30580173607e-10
2.31857256294e-10
2.82474405468e-11
2.87842701282e-11
2.76592513943e-11
2.86919252783e-11
3.39367932755e-12
2.30949335136e-10
2.3229554993e-10
2.31005193161e-10
2.31009038267e-10
2.31711034745e-10
2.31507200544e-10
3.12402014137e-12
9.75249192371e-13
3.7942899203e-12
3.05985375858e-12
2.90094100438e-12
3.01379822939e-12
2.9810150318e-12
8.86554725545e-13
2.8380407843e-11
2.88443816996e-11
2.86388844657e-11
2.91560065357e-11
2.84873704515e-11
2.92927625842e-11
2.88788578515e-11
2.84499768773e-12
2.77088753987e-12
2.95159347323e-12
2.56924978022e-12
2.86286247816e-11
2.94269008938e-11
2.91601371167e-11
2.90741691771e-11
2.96452553892e-11
2.89426599897e-11
2.93372166302e-11
2.87309623471e-11
2.90284281564e-11
2.95240269328e-11
2.89937340301e-11
2.88280120096e-11
2.80978845674e-11
2.88936746066e-11
3.38959100189e-12
3.39413895184e-12
3.83495626109e-12
1.52719108634e-12
4.1245489855e-12
3.91139779248e-12
3.25405871065e-12
8.88597081083e-13
3.10628182507e-12
3.08740082239e-12
3.16761352591e-12
3.03508008413e-12
3.14016691059e-12
3.09212759697e-12
3.18069350506e-12
3.38177602576e-12
1.52274563148e-12
8.9829644334e-13
2.30004503498e-12
3.30507610532e-12
3.53209204817e-12
3.33991869086e-12
3.55480658836e-12
2.23585462422e-12
9.76755887177e-13
3.90657338575e-12
3.61528245674e-12
3.73111370851e-12
3.25327517298e-12
2.40612344096e-12
2.62369091491e-12
3.80981517768e-12
3.69592397266e-12
4.05170276484e-12
3.71176442238e-12
3.94922001722e-12
3.70666510273e-12
3.68593105831e-12
3.77584537672e-12
2.6444516752e-12
1.52428285106e-12
2.41937716069e-12
2.33964228228e-12
3.37053859501e-12
3.49321826838e-12
3.31826495385e-12
3.49203706185e-12
2.98880227437e-12
3.0427638987e-12
3.3475365151e-12
3.30290218752e-12
3.481946205e-12
3.37922916155e-12
3.50098496133e-12
3.3325156189e-12
2.90922773811e-12
2.798477177e-12
3.37289269256e-12
3.57248055003e-12
3.32843260902e-12
3.5477880198e-12
3.17492944227e-12
3.15954955513e-12
3.57027727961e-12
3.51599066279e-12
3.37975285178e-12
3.55576891665e-12
3.09711308578e-12
3.37743137503e-12
3.61202005794e-12
3.11624601095e-12
3.59893677861e-12
3.38458285374e-12
3.53799935926e-12
3.55325070237e-12
3.16029271052e-12
3.1334006035e-12
3.4792602992e-12
2.99443670064e-12
3.4941843499e-12
3.52735249097e-12
3.04875781999e-12
3.07993762748e-12
3.51316340332e-12
3.0983394478e-12
3.05237195166e-12
3.48208318959e-12
2.91356731011e-12
3.4531780335e-12
3.02540091058e-12
2.97245992612e-12
3.3445119582e-12
3.40553463964e-12
2.80257048195e-12
2.88238914824e-11
2.83856496942e-11
2.85400405912e-11
2.91831339596e-11
2.89097608768e-11
2.89548337542e-11
2.88260492474e-11
2.90255640835e-11
2.88534563146e-11
2.88461162135e-11
2.93894268955e-11
2.89201138531e-11
2.90166665234e-11
2.91382497142e-11
3.70714333866e-12
3.65835975456e-12
3.69724036254e-12
3.61869575567e-12
3.57340451001e-12
3.67666716775e-12
3.64040848113e-12
3.6394419271e-12
3.59984578669e-12
3.60189360266e-12
3.63377305029e-12
3.56894691036e-12
3.57722768497e-12
3.62160512196e-12
3.58429543879e-12
3.5962291844e-12
3.35720695656e-12
3.49112233027e-12
3.40770895666e-12
3.48835400789e-12
3.49900246938e-12
3.5218548538e-12
3.43641822247e-12
3.54655304969e-12
3.53991540411e-12
3.56593000125e-12
3.51106588559e-12
3.50285326898e-12
3.50902809762e-12
3.45889820671e-12
3.5296396116e-12
3.57435742776e-12
3.55538229664e-12
3.5484226412e-12
3.41694011796e-12
3.51305263878e-12
3.46564504931e-12
3.50028278524e-12
2.30681811634e-10
2.30433366236e-10
2.31078197139e-10
2.31347384091e-10
2.34457100358e-12
2.89009487591e-11
3.57258996011e-12
3.49410635088e-12
3.41189014361e-12
2.85338987301e-11
2.91124577149e-11
2.80080879164e-11
3.25592310979e-12
3.54588249529e-12
3.38742346726e-12
3.52463232025e-12
3.04971497293e-12
3.13072171994e-12
2.9709879151e-12
2.90387674941e-11
2.30660322112e-10
2.89971141747e-11
2.30418305326e-10
2.57215323492e-12
2.87267700388e-11
3.17329549516e-12
1.84769714577e-09
2.33988223269e-12
2.86648904376e-11
1.8493390493e-09
2.86124557938e-11
2.6462679577e-12
9.76130708082e-13
3.69876486839e-12
2.83709910478e-11
2.97384837019e-12
2.78148630787e-11
3.63855861522e-12
1.51940603885e-12
2.84552295664e-11
2.90948713239e-12
3.0266633803e-12
2.83771016957e-11
2.79041044093e-11
2.33959747804e-12
2.76740964271e-11
3.46814384514e-12
3.69899865105e-12
3.5159771241e-12
3.66557673577e-12
3.599028081e-12
3.66169878297e-12
3.47983919879e-12
3.48886791848e-12
3.52040627312e-12
3.61699170644e-12
3.54207091282e-12
3.71608412687e-12
3.56630519208e-12
3.48798925758e-12
3.45593351036e-12
3.55944497039e-12
3.60938156805e-12
1.85367256497e-09
2.29960619615e-10
2.31454720126e-10
2.87539962183e-11
2.30889324363e-10
3.59533848913e-12
3.51427598038e-12
3.55394586924e-12
2.32094552601e-10
2.29956090628e-10
2.31034031472e-10
2.31170642188e-10
3.34061318432e-12
3.35691914088e-12
2.77455708229e-12
2.23954196145e-12
3.32767314666e-12
3.97178549668e-12
2.40843542424e-12
3.48035334798e-12
3.09507388392e-12
3.13279782011e-12
3.55406017063e-12
3.52538326493e-12
3.04809546203e-12
3.51109291328e-12
3.11294910481e-12
4.07289855548e-12
9.77521524037e-13
1.52383783223e-12
3.77469299129e-12
3.80282205841e-12
2.82752651372e-11
2.87591132196e-11
2.82815060104e-11
2.88703817247e-11
2.87266225972e-11
2.8786066704e-11
2.83613612816e-11
3.05609417025e-12
3.08740401147e-12
3.14050426385e-12
3.00868855094e-12
2.80682601135e-11
2.89690169445e-11
2.86888866999e-11
2.82931393157e-11
2.88828802028e-11
2.94056151282e-11
2.90174572218e-11
2.83813412082e-12
3.03399536139e-12
2.94521940234e-12
2.97781767647e-12
2.41471541879e-12
3.39493035873e-12
3.34421467879e-12
3.78075072446e-12
2.23741467067e-12
3.96099116753e-12
3.37764656926e-12
2.90115064892e-12
3.41280336482e-12
2.80033416973e-12
3.37569446295e-12
3.35126740481e-12
2.62468754953e-12
3.79391797098e-12
8.87512806333e-13
3.38987409859e-12
3.10519532699e-12
3.90184199588e-12
1.52146375271e-12
4.030972757e-12
3.80336620738e-12
2.41489698631e-12
8.98083117623e-13
3.32195382885e-12
3.90098259102e-12
2.29674358277e-12
3.40706141205e-12
3.02106887944e-12
2.77923690037e-12
3.39382984472e-12
3.35025478931e-12
2.95924698062e-12
3.45287977975e-12
3.43907469846e-12
3.08054455052e-12
3.4608494085e-12
2.91401780032e-12
3.49642221735e-12
3.40691320635e-12
2.99413817278e-12
3.37718061277e-12
4.10105419892e-12
2.57335622777e-12
2.64656493791e-12
3.36669659701e-12
3.40239413465e-12
2.85069764764e-12
3.17322551492e-12
3.36601928945e-12
3.1118592232e-12
3.37024697723e-12
3.34159659719e-12
3.4768030732e-12
3.29055786447e-12
2.33627778511e-12
2.56602098543e-12
2.89623222279e-12
2.76877056396e-12
3.54839518798e-12
4.06832428459e-12
3.3189419087e-12
3.37856091446e-12
3.38785527741e-12
3.24872885e-12
3.16028787403e-12
3.37659654951e-12
8.88699749239e-13
3.24921538194e-12
3.89082664406e-12
3.38685736063e-12
3.17718090511e-12
3.05280305083e-12
3.09883356766e-12
3.13701651246e-12
3.50072107043e-12
3.39111339705e-12
3.44623106757e-12
3.13110168966e-12
3.07781467207e-12
2.96995757756e-12
3.02322571527e-12
2.97866376141e-12
2.6367344406e-12
2.83980951694e-12
2.89735511759e-12
3.10375066339e-12
3.38593787e-12
3.18269848076e-12
3.16538385378e-12
3.03344638122e-12
3.00819061086e-12
2.94674049716e-12
3.08568676963e-12
3.40144294732e-12
3.48952850958e-12
3.3526876689e-12
3.47456150829e-12
3.33363897101e-12
3.47890826392e-12
3.34928776559e-12
1.52182806867e-12
8.87797887355e-13
3.80211193331e-12
3.74054281306e-12
3.89062534544e-12
3.38208326421e-12
3.61655380908e-12
3.24905965323e-12
2.56403106374e-12
2.4058197731e-12
2.76603997613e-12
2.23448570689e-12
3.33139474388e-12
3.45151059503e-12
3.47077280675e-12
3.47111670195e-12
3.3673284099e-12
3.39635120824e-12
3.48949485149e-12
2.63571500479e-12
2.76352727208e-12
2.89520300774e-12
2.40630783908e-12
3.34724355254e-12
3.45134746419e-12
3.27916863976e-12
3.55118787377e-12
3.33883392433e-12
3.52864748228e-12
3.29816936207e-12
2.33619660519e-12
9.76150900238e-13
1.52304631844e-12
3.31812352101e-12
3.30241938111e-12
3.47292736327e-12
3.69100192301e-12
3.29205637444e-12
3.55125900751e-12
3.94335157679e-12
4.06832210411e-12
3.71066697444e-12
3.1198623411e-12
3.70564024561e-12
3.68593427045e-12
3.77778547791e-12
3.80529089763e-12
2.88849397191e-11
2.91935666173e-11
2.89151241696e-11
2.87917467724e-11
2.8978313618e-11
2.88229006815e-11
2.84561060363e-11
3.72570435878e-12
3.38050623983e-12
3.89346456708e-12
3.24869522123e-12
3.5519347747e-12
3.60563326779e-12
3.3856727909e-12
2.56130745857e-12
2.23490861469e-12
9.75793470888e-13
2.33449481503e-12
3.30154162871e-12
3.67339886919e-12
3.93957434686e-12
3.77442629723e-12
3.66087494863e-12
3.69193849238e-12
4.05430294877e-12
8.8859416338e-13
3.17675819017e-12
3.52271488835e-12
3.13399673478e-12
3.7025644903e-12
3.52318653362e-12
3.45572339338e-12
8.8866272274e-13
1.52294616934e-12
3.11676719609e-12
3.89237760889e-12
3.59230586379e-12
3.66794170964e-12
3.59172437608e-12
3.37994858381e-12
3.7952395774e-12
3.37947544066e-12
3.53254364093e-12
3.55051607227e-12
3.09523370562e-12
3.55499980611e-12
3.1720319942e-12
3.15915190095e-12
3.48784340746e-12
3.02672972854e-12
3.08099880575e-12
2.93880645611e-11
2.92583008886e-11
2.89452573799e-11
2.90793151741e-11
2.89678059133e-11
2.90872836855e-11
2.93904379807e-11
2.301080206e-10
2.31072303262e-10
2.30891497096e-10
2.86105929167e-11
2.93602634404e-11
2.89512211297e-11
2.89304987094e-11
2.90366930253e-11
2.91762579774e-11
2.88632795676e-11
3.6427548266e-12
3.62279809387e-12
3.71164946574e-12
3.69239872011e-12
3.68050460585e-12
3.50741828487e-12
3.72848591096e-12
3.65358589984e-12
3.67028870413e-12
3.69311287727e-12
3.60198652992e-12
3.69666047204e-12
3.61562430737e-12
3.69468865684e-12
3.56855944002e-12
3.54137068878e-12
3.55607588864e-12
3.47637455274e-12
3.58962083797e-12
3.51855655418e-12
3.53723591601e-12
3.60792796257e-12
3.61723567851e-12
3.68509730932e-12
3.68463021942e-12
3.66178193876e-12
3.66789598211e-12
3.67788482972e-12
3.57568093511e-12
3.56908220664e-12
3.65590577918e-12
3.56148798534e-12
3.61617082673e-12
3.60916296896e-12
3.54546883622e-12
3.61066679148e-12
3.60428376436e-12
3.70436261459e-12
3.62425355498e-12
3.6433350362e-12
3.7317668865e-12
3.57018132505e-12
3.45427915787e-12
3.52519012448e-12
3.42440481939e-12
3.47784915232e-12
3.36814453223e-12
3.50006244977e-12
3.49983982117e-12
3.48111082607e-12
3.50008309649e-12
3.55075831966e-12
3.49274424912e-12
3.53852281142e-12
3.51352267121e-12
3.42748670128e-12
3.52468636385e-12
3.5701878841e-12
3.58226663041e-12
3.58578560718e-12
3.57133774004e-12
3.55271820367e-12
3.54411051452e-12
3.68977065381e-12
3.67249532423e-12
3.58484366422e-12
3.55371084877e-12
3.67741601057e-12
3.67938886269e-12
3.61106122798e-12
3.65354576806e-12
3.61760205762e-12
3.61733214636e-12
3.61668989627e-12
3.56075863398e-12
3.57432709661e-12
3.52604145543e-12
3.52802934327e-12
3.49134542556e-12
2.9207834883e-11
2.89061340926e-11
2.87670165033e-11
2.89596244307e-11
2.88294751726e-11
2.90684358778e-11
2.88395519743e-11
3.37513076172e-12
3.69251938085e-12
3.6593989776e-12
3.38393183354e-12
3.59664792478e-12
3.55277135226e-12
3.78034703841e-12
3.94699615964e-12
3.12272814695e-12
3.38739266932e-12
3.63046621043e-12
3.91680184285e-12
3.66965230133e-12
3.69232086814e-12
3.6493510875e-12
3.593930291e-12
3.56765972878e-12
3.61035748478e-12
3.63619871402e-12
3.60711011182e-12
3.62957624755e-12
3.77559429069e-12
2.31954006385e-10
2.29288796854e-10
1.48559884016e-08
1.88769038833e-09
1.8511804197e-09
1.85976823919e-09
1.84990888291e-09
1.50457001382e-08
1.49225859689e-08
1.49422456266e-08
1.50013722664e-08
1.86800148897e-09
1.8793707821e-09
1.87725627789e-09
1.50516101986e-08
1.88244990412e-09
2.30211883193e-10
2.30949036303e-10
2.31774084502e-10
2.32707516836e-10
2.32446175202e-10
2.33941060727e-10
2.36187740537e-10
2.34148421352e-10
2.33587392082e-10
2.33613418523e-10
2.34381878848e-10
2.29786537303e-10
2.26614867617e-10
2.30705777226e-10
2.25335480347e-10
2.25659187093e-10
1.86235335333e-09
2.28561049192e-10
2.26316176884e-10
1.48786089729e-08
1.48813385131e-08
1.48446423981e-08
1.49043502313e-08
1.48974857752e-08
1.85665503599e-09
1.85622909347e-09
2.30208088701e-10
2.302909104e-10
2.2878738693e-10
2.29647933253e-10
1.87797086564e-09
1.8771127766e-09
1.88179981247e-09
1.48904019195e-08
2.34068893656e-10
2.33305697815e-10
2.32536900329e-10
2.33271542735e-10
1.49007612739e-08
1.48936597644e-08
1.49080533988e-08
2.30930096445e-10
2.3149196889e-10
2.30521689805e-10
2.31292210684e-10
1.85854405709e-09
1.85788379741e-09
1.85682708209e-09
9.54256841225e-07
9.54789998487e-07
7.63707065651e-06
7.63802125924e-06
7.63738566009e-06
7.63819665052e-06
9.5447489773e-07
1.1932145851e-07
1.86764357195e-09
2.38912693197e-10
1.86142163141e-09
9.54772199211e-07
7.63884697641e-06
2.32363091033e-10
2.33887917791e-10
1.86365219722e-09
1.86035830315e-09
1.90721327867e-09
1.48773168925e-08
1.19362459375e-07
1.19121158874e-07
1.1919661243e-07
1.1957719696e-07
1.86785036205e-09
2.34136440738e-10
2.35515720461e-10
1.8209856154e-09
2.34281302761e-10
2.31269738967e-10
9.54525167785e-07
9.54832520187e-07
1.19309440872e-07
1.86780460466e-09
1.87522088471e-09
1.86641608536e-09
1.49139288947e-08
1.48326414729e-08
1.48684591799e-08
1.49196164422e-08
1.19314394334e-07
1.49048161842e-08
1.4898610043e-08
1.19298876424e-07
1.19320134548e-07
1.19226753498e-07
1.19341938621e-07
1.86728372771e-09
1.83557498308e-09
2.34060460216e-10
2.29550018654e-10
2.27642533902e-10
2.29458466716e-10
2.32757332767e-10
2.29944499012e-10
2.3199474018e-10
2.31532032111e-10
2.29924031737e-10
1.85184192904e-09
1.86480369412e-09
1.8672503578e-09
1.49097869762e-08
1.48940007453e-08
1.48796649787e-08
1.4917893211e-08
1.88530192148e-09
1.85052460871e-09
1.86631331062e-09
1.49415725096e-08
1.50244879712e-08
1.49499213178e-08
1.49812617512e-08
2.30173144611e-10
2.33649827055e-10
2.35058029005e-10
2.31757821591e-10
2.34355928393e-10
2.30934937744e-10
2.32999533675e-10
2.34573806131e-10
2.31051499491e-10
2.28048045144e-10
2.30776687046e-10
2.28838224301e-10
2.35785222984e-10
2.37614385414e-10
2.36831153225e-10
2.32034348346e-10
1.87337147697e-09
2.33433945184e-10
2.33374351918e-10
2.32011729716e-10
2.36090116715e-10
3.64232380865e-12
3.08574282617e-12
3.64237587168e-12
2.82643909969e-12
3.64265950669e-12
2.95023863597e-12
3.64232380865e-12
2.14881975285e-11
2.78628310241e-12
2.88900702038e-12
2.82656058036e-12
3.06164972521e-12
3.64232380865e-12
2.6401953014e-12
2.80187682483e-12
2.6669306e-12
2.77589024448e-12
3.52786318562e-12
2.81029731069e-12
2.37978468659e-11
2.60075330295e-12
2.3017042653e-11
2.89382301303e-12
4.55354817777e-13
3.64265950669e-12
3.64254760735e-12
2.28209111672e-11
3.00911408658e-12
2.78896839467e-12
2.61928805552e-12
2.16587707264e-11
2.92874459001e-11
2.83375618339e-11
2.65257263451e-11
2.17343065022e-11
2.35638119733e-11
2.70956611707e-12
2.72752044177e-11
2.32929317411e-11
2.38908235802e-11
2.50143593024e-12
2.49884967323e-11
2.75635961964e-11
2.84654806863e-12
2.19043367087e-10
2.86305676001e-11
3.0120624776e-11
2.84715485012e-11
2.19309355924e-10
2.34750510624e-10
3.04338976617e-11
2.20852157267e-10
2.82136300296e-11
2.83846589442e-11
2.52379542276e-11
2.86597197538e-11
2.76083823855e-11
2.34576786201e-11
2.55584309431e-11
2.47845562387e-11
3.64265950669e-12
2.68774225735e-12
3.64254760735e-12
3.0487605052e-12
3.64265950669e-12
4.55354817777e-13
3.64254760735e-12
4.55381395913e-13
1.90338170868e-09
1.87565584996e-09
1.48397438755e-08
1.49181232682e-08
1.89475000266e-09
1.5041069611e-08
1.49844748342e-08
2.3996977328e-10
2.3602629914e-10
4.51650640127e-13
4.5161082162e-13
2.98627286136e-12
3.38925407648e-12
2.31132522726e-10
2.36199129559e-10
4.5525551022e-13
3.64232380865e-12
4.55325441942e-13
3.64232380865e-12
3.37540356311e-12
2.28714602075e-10
3.26790570127e-12
3.54112222083e-12
2.27914901005e-10
1.83909559807e-09
1.83293760531e-09
1.8471136614e-09
1.84435850691e-09
1.84575802111e-09
1.84858629402e-09
2.432515933e-11
2.28491415879e-10
2.29381917391e-10
2.35121625636e-11
2.49545914437e-11
2.2925545861e-10
2.33314861863e-10
2.48982609406e-11
2.30595918317e-10
2.53756190476e-11
2.32617139766e-11
1.49216184501e-08
1.85023096462e-09
1.86646166401e-09
1.49168130119e-08
1.49112864008e-08
1.49258961185e-08
1.49070268998e-08
2.79324894166e-11
2.26821747609e-10
2.37179761496e-11
2.29253518536e-10
3.67836153382e-12
2.28252148972e-10
3.90418396414e-12
2.86772214733e-11
2.39354226951e-11
2.28538549277e-10
2.47841593476e-11
2.30512532898e-10
2.38269824467e-11
2.159543271e-11
2.27949696664e-10
1.84813863571e-09
1.85610366821e-09
1.84404384611e-09
1.85297013183e-09
1.86223210141e-09
1.85292127983e-09
1.86007024131e-09
1.86032884601e-09
1.87294462857e-09
1.86117997095e-09
1.86026223415e-09
1.87130969844e-09
1.86981766944e-09
1.8603661986e-09
1.86345581612e-09
1.86777768819e-09
1.86394304202e-09
1.86062576631e-09
1.86754640999e-09
1.86260940702e-09
1.86671962751e-09
2.47390133427e-11
2.23058687315e-10
2.57249338412e-11
2.27495021094e-10
2.39520620426e-11
2.28390376207e-10
2.28549009864e-10
2.57425018628e-11
2.2729457081e-10
2.51160274646e-11
2.50055393454e-11
4.68891931564e-13
3.64265950669e-12
3.64265950669e-12
2.43432262829e-11
2.32696205587e-11
2.23330831474e-10
2.2740025706e-10
2.48069138827e-11
2.25624531774e-10
2.49818654241e-11
2.34248241006e-11
2.28793223411e-10
2.27608603381e-10
3.64254760735e-12
2.43309260151e-11
2.28693516711e-10
2.40345891896e-11
2.52940828963e-11
2.33143969475e-10
2.32092522753e-10
2.68330083461e-11
2.31523071545e-10
2.52915226632e-11
2.61999041784e-11
2.45541468749e-11
2.32055043285e-11
2.27964971488e-10
2.31097272775e-10
2.41101637646e-11
2.29530407395e-10
2.53173294196e-11
4.52871212671e-13
4.18153177529e-13
4.51748304207e-13
2.65326599788e-11
2.33346847264e-10
2.30776776293e-10
2.67268121013e-11
2.33025381907e-10
2.50145811136e-11
2.25105104795e-10
2.69282457732e-11
2.31632116873e-10
2.31881096919e-10
2.2005443968e-10
2.32749815312e-10
2.56345308776e-11
2.20482714011e-10
2.65470418361e-11
2.48219528231e-11
2.30034188093e-10
2.31531722946e-10
2.32349652658e-10
2.51682890296e-11
2.52322927128e-11
4.55561066405e-13
4.65503627869e-13
4.29865187112e-13
4.55395384406e-13
1.85532541163e-09
1.85563757023e-09
1.86027386475e-09
1.86448372961e-09
1.85767862033e-09
1.86118560537e-09
1.86035802109e-09
1.86884455452e-09
1.86322799086e-09
1.87359149415e-09
1.87144815296e-09
1.86821944472e-09
1.86865057108e-09
1.86752162095e-09
4.6744214159e-13
2.79272146531e-11
2.47522866877e-11
2.8972178972e-12
2.87886247287e-11
2.26903215628e-10
2.31355889634e-10
2.20838627214e-10
2.32261234104e-10
2.22857090185e-10
2.32580626026e-10
2.25944718361e-10
4.55325441942e-13
4.67472821727e-13
4.55325441942e-13
4.55325441942e-13
2.23057651816e-12
4.51650640127e-13
2.30314825551e-10
3.64254760735e-12
2.25129679329e-10
3.24071809724e-12
3.64265950669e-12
2.28733544754e-10
4.55284881543e-13
2.55272517543e-12
4.55311455598e-13
3.08035131892e-12
2.28070674478e-10
3.64254760735e-12
2.24633875581e-10
2.43744376251e-11
3.64265950669e-12
2.26044633369e-10
3.08661649069e-12
3.64232380865e-12
3.64232380865e-12
3.4189456868e-12
2.4001183642e-12
3.14525400265e-12
2.24237496836e-10
2.65165102485e-11
3.58088253655e-12
2.26301084404e-10
2.26338610485e-10
2.26865735154e-10
3.64254760735e-12
2.47683083959e-11
3.22860038415e-12
3.5586333139e-12
2.25955666779e-10
3.68323556656e-12
3.19667586389e-12
2.36356914354e-11
2.23231857238e-10
2.26412759186e-10
2.49208935683e-11
2.48693281095e-11
2.89901991029e-11
2.245618955e-10
4.55284881543e-13
3.64265950669e-12
2.75639043948e-12
3.38913805611e-12
2.93840018855e-11
3.04328942657e-11
2.96677609104e-11
2.86358674485e-11
2.90820566731e-11
2.92165145776e-11
3.02413047165e-11
2.92692396612e-11
2.99234750782e-11
3.09957008019e-11
2.92940169114e-11
3.01662803221e-11
2.98575750041e-11
3.06011778675e-11
2.85648350736e-11
2.8232727172e-11
2.85938368195e-11
2.71949138202e-11
2.79487232587e-11
2.92703596221e-11
2.53041450382e-12
2.11671019966e-11
2.64301823792e-11
2.7984768314e-11
2.35070768934e-11
2.26570422898e-11
2.63973327591e-11
2.69452889654e-11
2.66409911263e-11
2.99298157067e-11
3.02985805632e-11
2.71840190158e-11
2.33347909711e-10
2.25438598038e-10
3.64204408176e-12
3.1975121253e-12
3.64232380865e-12
3.64260355702e-12
2.98808145777e-12
3.64260355702e-12
4.51609550217e-13
3.64232380865e-12
3.64260355702e-12
3.64260355702e-12
3.03274648801e-12
2.92183537981e-12
3.52552655353e-12
3.64257558218e-12
3.64265950669e-12
3.64257558218e-12
3.64254760735e-12
3.64254760735e-12
4.22601872818e-13
4.55381395913e-13
4.68078522159e-13
3.64254760735e-12
3.64254760735e-12
3.40144340579e-12
3.64257558218e-12
4.34799270562e-13
3.64257558218e-12
4.39058778221e-13
3.10050389559e-12
3.37491653077e-12
2.75817408273e-12
4.51609550217e-13
4.51609550217e-13
4.22440174989e-13
4.51678921884e-13
4.55325441942e-13
2.93530030337e-12
2.48935775299e-12
2.75892825174e-12
4.18104185681e-13
4.51609550217e-13
3.16280129646e-12
2.37840184093e-12
4.30554020962e-13
2.70022129525e-12
4.55325018076e-13
3.50686137854e-12
2.74899017421e-12
4.29731989045e-13
2.97570887494e-12
3.64260355702e-12
2.80703300416e-12
3.0426924259e-12
3.64232380865e-12
3.64260355702e-12
3.169085398e-12
2.74849906692e-12
2.8454564575e-12
3.95335403265e-13
2.88132894082e-12
4.29784797891e-13
2.6549281855e-12
3.11472657258e-12
2.73368951198e-12
4.5163645123e-13
2.46786891324e-12
2.81193871489e-12
2.7421291804e-12
4.18177796201e-13
4.51707214672e-13
2.59409368576e-12
2.41049162533e-12
4.51734003824e-13
2.74178981453e-12
4.29824514555e-13
3.91441917934e-13
3.29631766516e-12
2.93061278254e-12
4.55284457715e-13
2.70550029769e-12
4.5163645123e-13
4.5163783866e-13
4.44316782609e-13
2.72838584932e-12
4.22439751188e-13
2.62537638663e-12
2.43275874469e-12
3.91415476341e-13
4.51678498018e-13
4.55325018076e-13
2.38836057557e-11
2.38585267079e-11
4.55325018076e-13
2.34490301032e-11
4.67472178392e-13
4.51609126416e-13
2.70204249991e-12
4.18104185681e-13
2.35195882805e-11
2.59407298765e-12
4.67854199271e-13
4.51678498018e-13
2.56666404813e-12
2.36703186465e-11
4.55507091832e-13
4.55325018076e-13
2.5668943164e-12
3.64237975403e-12
4.4437106586e-13
3.40695233429e-12
3.64229583596e-12
4.5163645123e-13
3.64254760735e-12
3.64254760735e-12
3.64254760735e-12
3.64265950669e-12
3.64257558218e-12
3.64257558218e-12
3.64254760735e-12
3.64249554392e-12
4.55284457715e-13
3.64226786327e-12
4.5163645123e-13
4.55255086419e-13
2.49155933424e-12
2.82600146141e-12
2.68269147374e-12
4.51609126416e-13
4.51609126416e-13
2.87245587353e-12
2.84132054954e-12
2.78478047452e-12
4.44385457901e-13
4.51678921884e-13
4.44385457901e-13
4.29732518796e-13
4.2244059879e-13
2.39319490808e-12
2.89221255843e-12
2.74362598632e-12
4.37091570052e-13
2.54841112985e-12
2.86562418162e-12
4.18168029305e-13
2.72834629432e-12
4.51678498018e-13
4.66008334256e-13
4.51678921884e-13
4.22505065953e-13
4.55325018076e-13
2.41783578076e-12
2.1873495495e-12
4.22504642087e-13
4.44385034035e-13
2.25070344063e-11
4.55255086419e-13
4.55255086419e-13
2.3582884683e-11
2.2369054323e-11
4.56041529652e-13
3.64260355702e-12
2.35978686636e-11
4.51680193482e-13
4.09578629065e-13
4.55348745106e-13
4.55325441942e-13
4.55325441942e-13
4.55394960475e-13
4.55394960475e-13
2.41266530308e-11
2.30495116183e-11
4.55394960475e-13
2.39304768186e-11
3.64260355702e-12
4.55455880533e-13
4.2244059879e-13
4.5525551022e-13
4.55325018076e-13
2.33980595252e-11
4.29798106069e-13
2.37380124723e-11
4.65589093035e-13
4.55507091832e-13
2.38793006624e-11
3.64232380865e-12
2.32513419169e-11
2.65289443894e-12
2.33670417697e-11
3.64260355702e-12
2.29454481752e-11
3.64232380865e-12
3.64254760735e-12
3.64226786327e-12
2.65257769521e-12
4.53498959073e-13
4.55395384406e-13
3.64260355702e-12
4.55325441942e-13
4.55325441942e-13
4.55325441942e-13
3.64260355702e-12
3.64260355702e-12
3.64232380865e-12
2.36454650295e-11
2.50463917751e-11
3.64260355702e-12
3.64232380865e-12
2.52655922267e-11
3.64260355702e-12
2.50564989537e-11
3.64260355702e-12
2.51070681432e-11
3.64260355702e-12
2.82859450505e-12
2.50333220913e-11
4.55283059082e-13
3.64257558218e-12
4.55311031745e-13
3.64265950669e-12
3.64252351818e-12
4.55283059082e-13
4.55311031745e-13
4.65488032037e-13
2.90520721585e-12
2.64367807319e-12
3.33662746695e-12
4.51707214672e-13
4.22530602433e-13
4.67441604259e-13
3.64254760735e-12
3.10574452113e-12
4.55284457715e-13
3.64254760735e-12
4.5163783866e-13
4.55283059082e-13
4.67495300811e-13
3.64265950669e-12
2.61506504387e-12
4.55545274871e-13
3.39333919988e-12
4.29824408582e-13
4.55380971995e-13
3.64257558218e-12
4.55311455598e-13
4.68035933872e-13
3.64229583596e-12
4.68007179438e-13
3.64254760735e-12
4.55353418928e-13
4.55353418928e-13
3.64254760735e-12
3.64249554392e-12
4.55284457715e-13
3.64226786327e-12
4.68007179438e-13
4.55381395913e-13
4.55353418928e-13
4.55353418928e-13
2.32225519617e-10
1.8484610897e-09
1.85671342815e-09
1.862186282e-09
1.8730522232e-09
1.86334683355e-09
1.88366237298e-09
1.87854022584e-09
1.88095515667e-09
2.32626341105e-10
2.48842358931e-11
2.37180484623e-10
2.30846641452e-11
2.36396849331e-10
2.83232245084e-11
3.00987506338e-11
2.40481097836e-10
2.86923888601e-11
2.22192616539e-10
3.64232380865e-12
2.86146396512e-11
2.30094339438e-10
2.15203915926e-11
2.26848679672e-10
2.20508274279e-10
3.64232380865e-12
2.2427234435e-10
2.74493482759e-11
2.73535569444e-11
2.13072859172e-11
3.09319371398e-11
2.41812601514e-10
2.74818792501e-12
2.69277315336e-11
2.56739367261e-12
2.48046527359e-12
2.79295814949e-11
2.73251632881e-11
2.74011676235e-11
2.77906587249e-11
2.74500770897e-11
2.68554930929e-11
4.5161082162e-13
4.16728065952e-13
4.5161082162e-13
4.52835879167e-13
4.52125322653e-13
4.5525551022e-13
4.67838144521e-13
4.51608702615e-13
4.5525551022e-13
4.5525551022e-13
4.55325441942e-13
4.52175545072e-13
4.65588432549e-13
4.55325441942e-13
4.55255086419e-13
3.64232380865e-12
4.55255086419e-13
4.55255086419e-13
4.5525551022e-13
3.64260355702e-12
3.64232380865e-12
4.56077051417e-13
4.55325018076e-13
4.55325018076e-13
3.64260355702e-12
4.55325018076e-13
3.64260355702e-12
1.86818428777e-09
1.86812565862e-09
1.8722923857e-09
1.86867314817e-09
2.23021152772e-10
2.31662626791e-10
2.32945576823e-10
2.31967160912e-10
2.32212198385e-10
2.29181863607e-10
2.2561310317e-10
1.86627616973e-09
1.49248849022e-08
1.49354661178e-08
1.89782924831e-09
1.89866982643e-09
1.8963410583e-09
1.87905238987e-09
1.88544074809e-09
1.88051234259e-09
1.88167081608e-09
2.35017203465e-10
2.49123777007e-11
2.65927312397e-11
2.28806224294e-10
2.34900480794e-10
2.34283548865e-10
2.30405465211e-10
1.87458951161e-09
1.86360805615e-09
1.8771291534e-09
1.86657185774e-09
1.86541033172e-09
1.88533773456e-09
1.87756860734e-09
1.88752555937e-09
1.87668141827e-09
1.87559363575e-09
1.87303526451e-09
1.8790010107e-09
2.25245517834e-10
2.28498464971e-10
2.69548607861e-11
2.31904494798e-10
2.49238291986e-11
2.31048890601e-10
2.27686605069e-10
2.84440773803e-11
2.33810490173e-10
2.85844095131e-11
2.33676360771e-10
2.35386729353e-10
2.73293824428e-11
2.29935378704e-10
2.32664336095e-10
2.33731580858e-10
2.33125949691e-10
2.33264005488e-10
2.31371150058e-10
2.30021487167e-10
2.41782076239e-10
2.36656583054e-10
2.37551562643e-10
2.39048279924e-10
2.38176343509e-10
2.40279668065e-10
2.36933487099e-10
2.65036307709e-11
2.84781772973e-11
2.30805938384e-10
2.33415669746e-10
2.29048507449e-10
2.3240210032e-10
2.36196014821e-10
2.33033317725e-10
2.42125273606e-10
2.33367009962e-10
2.23232653371e-10
2.33208741463e-10
2.22713708076e-10
2.32876079284e-10
2.72830248084e-11
2.28399022479e-10
2.28352436413e-10
2.33520830642e-10
2.38019633413e-10
2.34549845732e-10
2.36324901197e-10
2.36063187734e-10
2.37215431084e-10
2.41541971633e-10
2.3462725506e-10
4.55321203281e-13
3.64232380865e-12
3.64260355702e-12
4.5525127221e-13
4.55321203281e-13
3.64260355702e-12
4.5525127221e-13
3.64230685531e-12
3.64258660238e-12
3.31071414464e-12
3.07404708282e-12
3.32735130816e-12
3.64230685531e-12
3.64258660238e-12
4.65445385438e-13
3.64237587418e-12
4.51675954821e-13
3.64255149399e-12
4.5160658361e-13
3.64255149149e-12
4.55504228685e-13
4.55349180006e-13
4.55307217067e-13
3.64254760735e-12
3.64265950669e-12
3.64254760735e-12
4.55279244638e-13
4.55377156731e-13
4.55321203281e-13
3.64260355702e-12
4.5525127221e-13
3.64232380865e-12
3.64260355702e-12
4.5525127221e-13
4.55321203281e-13
2.38622513677e-12
2.24688884392e-12
2.43926649786e-12
2.70889207509e-12
4.26150801568e-13
3.64260355702e-12
3.64230685531e-12
3.64258660238e-12
3.3049873581e-12
2.93801458458e-12
3.1011954773e-12
3.64230685531e-12
3.64258660238e-12
4.5525127221e-13
3.64232380865e-12