/*--------------------------------*- C++ -*----------------------------------*\
| =========                 |                                                 |
| \\      /  F ield         | OpenFOAM: The Open Source CFD Toolbox           |
|  \\    /   O peration     | Version:  2406                                  |
|   \\  /    A nd           | Website:  www.openfoam.com                      |
|    \\/     M anipulation  |                                                 |
\*---------------------------------------------------------------------------*/
FoamFile
{
    version     2.0;
    format      ascii;
    arch        "LSB;label=32;scalar=64";
    class       volScalarField;
    location    "0.01";
    object      k;
}
// * * * * * * * * * * * * * * * * * * * * * * * * * * * * * * * * * * * * * //

dimensions      [0 2 -2 0 0 0 0];

internalField   nonuniform List<scalar> 
29768
(
0.237418130591
0.237418087294
0.23741811166
0.237418088267
0.237418088045
0.237418088417
0.237418087628
0.237418111143
0.237418110909
0.237418111584
0.23741808739
0.237418108616
0.237417928226
0.237410291072
0.237387230228
0.239879307471
0.23987927619
0.239879275315
0.239879275632
0.239879275402
0.23987927575
0.239879275731
0.2398792753
0.239879275808
0.239879275242
0.239879275176
0.239879251792
0.23987814068
0.23983238965
0.237410290575
0.239954201308
0.239954177613
0.239954176751
0.239954176725
0.239954176722
0.239954176727
0.239954176727
0.239954176726
0.239954176728
0.239954176625
0.239954172565
0.239954043166
0.239950904221
0.239878140519
0.237417903415
0.239957632929
0.239957610891
0.239957610022
0.239957609994
0.239957609993
0.239957609993
0.239957609994
0.239957609994
0.239957609992
0.239957609864
0.239957604969
0.239957456325
0.239954043258
0.239879251277
0.237418107179
0.239957782915
0.239957761008
0.239957760141
0.239957760113
0.239957760112
0.239957760111
0.239957760111
0.23995776011
0.239957760109
0.239957759981
0.239957755025
0.239957604977
0.239954172683
0.239879276058
0.237418111491
0.239957787864
0.239957765964
0.239957765096
0.239957765068
0.23995776507
0.23995776507
0.23995776507
0.239957765068
0.239957765066
0.239957764937
0.239957759981
0.239957609873
0.239954176736
0.239879275661
0.2374181114
0.239957787704
0.239957766084
0.239957765233
0.239957765203
0.239957765197
0.2399577652
0.2399577652
0.239957765198
0.239957765196
0.239957765066
0.239957760109
0.239957610001
0.239954176842
0.239879276272
0.237418111418
0.239957775061
0.239957765296
0.2399577652
0.239957765205
0.2399577652
0.2399577652
0.239957765202
0.239957765201
0.239957765198
0.239957765069
0.239957760111
0.239957610003
0.239954176839
0.239879275686
0.237418111509
0.23995734503
0.239957738257
0.239957763768
0.239957765151
0.239957765204
0.239957765204
0.239957765203
0.239957765203
0.2399577652
0.23995776507
0.239957760112
0.239957610002
0.239954176843
0.239879276206
0.237418111501
0.239947324583
0.239957081021
0.239957724862
0.239957763332
0.239957765146
0.239957765207
0.239957765204
0.239957765203
0.2399577652
0.23995776507
0.239957760112
0.239957610002
0.239954176843
0.239879276328
0.237418111494
0.239715011666
0.239946061095
0.239956957505
0.239957723147
0.239957763623
0.239957765167
0.239957765206
0.239957765202
0.2399577652
0.23995776507
0.239957760112
0.239957610001
0.239954176837
0.239879275621
0.237418111467
0.234650749227
0.239752682278
0.239946065493
0.239957092801
0.239957738182
0.239957764413
0.239957765192
0.239957765204
0.239957765201
0.239957765072
0.239957760113
0.239957610002
0.239954176838
0.239879276085
0.23741808789
0.0437505527984
0.227502564517
0.239777194528
0.239950656359
0.239957463618
0.239957756927
0.239957765039
0.239957765232
0.239957765231
0.239957765099
0.23995776014
0.23995761003
0.239954176863
0.239879275648
0.237418111308
0.24
0.182846760206
0.237895401789
0.239914430597
0.239956155113
0.239957711952
0.239957765506
0.239957766092
0.239957766102
0.23995776597
0.23995776101
0.239957610901
0.239954177729
0.239879276624
0.237418088154
0.24
0.24
0.226112485251
0.239804443978
0.239952734044
0.239957603096
0.239957782765
0.239957787957
0.239957788065
0.239957787933
0.23995778298
0.239957633001
0.239954201478
0.239879307645
0.237418131539
0.237417886388
0.237417866256
0.237417866387
0.23741786627
0.237417866165
0.23741786617
0.237417866164
0.23741786629
0.23741786628
0.237417866282
0.237417866103
0.237417863297
0.237417682862
0.237410044365
0.237387005641
0.239879287649
0.239879256758
0.239879256264
0.239879256265
0.239879256274
0.239879256286
0.239879256294
0.239879256313
0.23987925632
0.23987925632
0.239879255881
0.239879231948
0.239878120581
0.239832363338
0.237410044471
0.23995419036
0.239954166674
0.239954165813
0.239954165787
0.239954165787
0.239954165788
0.239954165788
0.239954165789
0.239954165788
0.239954165689
0.23995416163
0.239954032177
0.239950892523
0.239878121137
0.237417682916
0.239957622899
0.239957600864
0.239957599996
0.239957599968
0.239957599966
0.239957599967
0.239957599967
0.239957599967
0.239957599965
0.239957599838
0.239957594943
0.239957446241
0.23995403232
0.239879232625
0.237417863484
0.23995777295
0.239957751047
0.23995775018
0.239957750152
0.23995775015
0.23995775015
0.23995775015
0.23995775015
0.239957750148
0.239957750019
0.239957745062
0.239957594955
0.239954161787
0.239879256573
0.23741786647
0.239957777905
0.239957756009
0.239957755142
0.239957755114
0.239957755112
0.239957755112
0.239957755111
0.23995775511
0.239957755108
0.239957754979
0.239957750019
0.23995759985
0.239954165845
0.239879257004
0.237417866526
0.23995777802
0.239957756141
0.239957755275
0.239957755246
0.239957755244
0.239957755243
0.239957755242
0.23995775524
0.239957755238
0.239957755108
0.239957750148
0.239957599978
0.239954165946
0.239879257007
0.237417866548
0.239957777037
0.239957756082
0.239957755276
0.239957755251
0.239957755247
0.239957755247
0.239957755245
0.239957755243
0.23995775524
0.239957755111
0.23995775015
0.239957599979
0.239954165947
0.239879256999
0.237417866653
0.23995773392
0.239957753432
0.239957755144
0.23995775525
0.239957755251
0.239957755249
0.239957755247
0.239957755245
0.239957755242
0.239957755111
0.239957750151
0.23995759998
0.239954165947
0.239879256993
0.237417866644
0.239956631507
0.239957678487
0.239957750837
0.239957755077
0.239957755249
0.239957755252
0.239957755249
0.239957755246
0.239957755247
0.239957755112
0.239957750151
0.23995759998
0.239954165946
0.239879256983
0.237417866632
0.239936444764
0.239956316322
0.239957664335
0.239957750686
0.239957755104
0.239957755251
0.23995775525
0.239957755248
0.239957755247
0.239957755112
0.239957750151
0.239957599979
0.239954165945
0.239879256971
0.237417866624
0.239641677486
0.239938441765
0.239956427213
0.239957685681
0.239957752341
0.23995775519
0.239957755253
0.23995775525
0.239957755245
0.239957755113
0.239957750152
0.239957599981
0.239954165946
0.239879256963
0.237417866488
0.212076764005
0.239615833578
0.239943546143
0.239957020918
0.23995772525
0.239957754774
0.239957755273
0.239957755279
0.239957755279
0.239957755141
0.23995775018
0.239957600008
0.239954165972
0.239879256965
0.237417866615
0.24
0.228838839738
0.239875089498
0.239953467145
0.2399575547
0.239957748966
0.239957755984
0.239957756145
0.239957756147
0.23995775601
0.239957751048
0.239957600878
0.239954166835
0.239879257462
0.23741786651
0.24
0.24
0.2340410626
0.239921310482
0.239956387851
0.239957729837
0.239957777219
0.239957778067
0.239957778079
0.239957777945
0.23995777299
0.239957622951
0.239954190553
0.239879288339
0.237417886714
0.237417883745
0.237417863116
0.237417863126
0.237417863166
0.237417863735
0.23741786377
0.237417863786
0.23741786377
0.237417863837
0.237417863905
0.23741786348
0.237417860556
0.237417680136
0.237410041637
0.237387003043
0.23987928745
0.239879256552
0.239879256056
0.23987925606
0.239879256087
0.239879256098
0.239879256105
0.23987925613
0.239879256134
0.239879256136
0.239879255686
0.23987923175
0.23987812038
0.239832363061
0.237410041756
0.239954190153
0.239954166472
0.239954165611
0.239954165586
0.239954165586
0.239954165586
0.239954165587
0.239954165588
0.239954165586
0.239954165487
0.239954161427
0.239954031968
0.239950892303
0.239878120844
0.237417680341
0.239957622692
0.239957600662
0.239957599795
0.239957599767
0.239957599765
0.239957599766
0.239957599766
0.239957599765
0.239957599763
0.239957599636
0.239957594741
0.239957446037
0.239954032101
0.239879232354
0.237417861175
0.239957772745
0.239957750846
0.239957749979
0.239957749951
0.239957749949
0.239957749949
0.239957749949
0.239957749948
0.239957749946
0.239957749817
0.23995774486
0.239957594752
0.239954161573
0.239879256298
0.237417864088
0.239957777701
0.239957755809
0.239957754942
0.239957754913
0.239957754911
0.239957754911
0.23995775491
0.239957754909
0.239957754907
0.239957754778
0.239957749818
0.239957599648
0.239954165632
0.23987925673
0.237417864102
0.239957777838
0.23995775594
0.239957755072
0.239957755043
0.239957755041
0.239957755041
0.239957755041
0.239957755039
0.239957755037
0.239957754907
0.239957749947
0.239957599775
0.239954165733
0.239879256735
0.237417864166
0.239957777884
0.239957755942
0.239957755077
0.239957755048
0.239957755045
0.239957755044
0.239957755043
0.239957755043
0.239957755039
0.239957754909
0.239957749949
0.239957599777
0.239954165733
0.239879256709
0.237417863598
0.239957775829
0.23995775555
0.239957755068
0.239957755052
0.239957755049
0.239957755047
0.239957755045
0.239957755043
0.239957755041
0.23995775491
0.23995774995
0.239957599778
0.239954165733
0.239879256697
0.237417863561
0.239957728437
0.239957752001
0.239957754491
0.239957755038
0.239957755052
0.239957755051
0.239957755046
0.239957755044
0.239957755043
0.239957754911
0.23995774995
0.239957599778
0.239954165733
0.239879256688
0.237417863522
0.23995676584
0.239957677352
0.239957750058
0.239957754453
0.23995775504
0.239957755052
0.239957755048
0.239957755045
0.239957755045
0.239957754911
0.23995774995
0.239957599777
0.239954165731
0.239879256676
0.237417863492
0.239943011314
0.239956528873
0.239957675996
0.239957750979
0.239957754573
0.239957755056
0.239957755051
0.239957755049
0.239957755044
0.239957754912
0.239957749951
0.239957599778
0.239954165732
0.239879256666
0.237417863463
0.239673202866
0.239942947739
0.239956821876
0.239957708529
0.239957753024
0.23995775518
0.239957755088
0.239957755079
0.239957755079
0.239957754941
0.239957749979
0.239957599806
0.239954165758
0.239879256664
0.23741786345
0.231108813854
0.239836672297
0.239950633315
0.239957359595
0.239957739486
0.239957755082
0.239957755936
0.239957755948
0.239957755942
0.239957755809
0.239957750848
0.239957600676
0.239954166621
0.239879257161
0.23741786346
0.24
0.232913975077
0.239868218973
0.239954469852
0.239957648251
0.239957773538
0.239957777868
0.239957777884
0.23995777788
0.239957777747
0.239957772793
0.239957622752
0.239954190343
0.239879288044
0.237417883547
0.237417925158
0.237417904252
0.237417904273
0.237417904328
0.237417905242
0.237417905289
0.237417905364
0.237417905434
0.237417905638
0.237417905784
0.237417904945
0.237417902043
0.237417721637
0.237410083378
0.237387045402
0.239879290096
0.239879259235
0.239879258733
0.239879258736
0.239879258766
0.239879258747
0.239879258758
0.239879258806
0.239879258805
0.239879258781
0.239879258329
0.239879234415
0.239878123092
0.239832366911
0.237410083495
0.239954190964
0.239954167289
0.239954166428
0.239954166402
0.239954166401
0.239954166399
0.239954166403
0.239954166405
0.239954166403
0.239954166306
0.239954162238
0.239954032779
0.239950893226
0.239878123551
0.237417721817
0.239957623386
0.239957601358
0.239957600491
0.239957600463
0.239957600461
0.239957600462
0.239957600462
0.239957600462
0.23995760046
0.239957600333
0.239957595443
0.239957446741
0.239954032923
0.239879235053
0.237417903093
0.239957773431
0.239957751534
0.239957750668
0.23995775064
0.239957750638
0.239957750638
0.239957750638
0.239957750638
0.239957750636
0.239957750507
0.239957745551
0.239957595455
0.239954162395
0.239879259017
0.237417905939
0.23995777839
0.239957756497
0.23995775563
0.239957755601
0.239957755599
0.239957755599
0.239957755599
0.239957755598
0.239957755596
0.239957755467
0.239957750507
0.239957600346
0.239954166461
0.239879259429
0.237417905771
0.239957778512
0.239957756615
0.239957755744
0.239957755716
0.239957755725
0.239957755729
0.23995775573
0.239957755728
0.239957755726
0.239957755596
0.239957750636
0.239957600472
0.239954166556
0.239879259432
0.237417905723
0.239957778274
0.239957756612
0.239957755758
0.23995775573
0.239957755728
0.239957755725
0.239957755731
0.239957755732
0.239957755728
0.239957755598
0.239957750638
0.239957600474
0.239954166557
0.239879259427
0.237417904822
0.239957777743
0.239957755879
0.239957755737
0.239957755735
0.239957755734
0.239957755732
0.239957755727
0.239957755732
0.239957755729
0.239957755599
0.239957750639
0.239957600474
0.239954166556
0.239879259401
0.237417904765
0.239957775983
0.239957755389
0.239957754794
0.239957755332
0.239957755728
0.239957755735
0.239957755732
0.239957755726
0.239957755723
0.239957755598
0.239957750639
0.239957600474
0.239954166556
0.2398792594
0.237417904711
0.239957743757
0.239957752918
0.239957754463
0.239957754829
0.239957755699
0.23995775574
0.239957755732
0.239957755721
0.239957755726
0.239957755598
0.239957750639
0.239957600474
0.239954166555
0.239879259401
0.23741790466
0.239957149273
0.239957708019
0.239957751838
0.239957754464
0.23995775488
0.239957755721
0.239957755734
0.239957755731
0.239957755724
0.2399577556
0.23995775064
0.239957600475
0.239954166554
0.239879259353
0.237417904601
0.239948680006
0.239957107378
0.239957716382
0.239957752835
0.239957754644
0.239957755261
0.239957755757
0.239957755761
0.239957755757
0.239957755629
0.239957750668
0.239957600503
0.239954166581
0.239879259383
0.237417904582
0.239871552309
0.239952033347
0.239957376244
0.239957737125
0.239957754797
0.239957755692
0.23995775661
0.239957756629
0.239957756615
0.239957756495
0.239957751537
0.239957601373
0.239954167444
0.239879259863
0.237417904567
0.239531564454
0.239891657119
0.239954476762
0.239957622273
0.239957771759
0.239957777489
0.239957778191
0.239957778565
0.239957778557
0.239957778432
0.239957773479
0.239957623445
0.239954191163
0.23987929076
0.237417924649
0.237417882268
0.237417875863
0.237417875894
0.237417875942
0.237417862344
0.237417862418
0.237417862548
0.237417862689
0.237417862741
0.237417862885
0.237417862974
0.237417860063
0.237417679642
0.237410041156
0.237387002563
0.239879289298
0.239879259024
0.23987925635
0.239879257463
0.239879258178
0.239879258358
0.239879258186
0.23987925839
0.239879258163
0.239879258409
0.239879257962
0.239879233489
0.239878121786
0.239832363145
0.23741004127
0.239954190234
0.239954166539
0.239954165626
0.239954165614
0.239954165637
0.239954165644
0.239954165637
0.239954165651
0.239954165658
0.239954166238
0.239954161531
0.239954032015
0.239950892341
0.239878120936
0.237417679837
0.239957622706
0.239957600669
0.239957599799
0.239957599771
0.239957599771
0.239957599771
0.239957599771
0.239957599771
0.239957599771
0.239957599687
0.239957594963
0.239957446074
0.239954032121
0.239879232432
0.23741786019
0.239957772757
0.23995775085
0.239957749983
0.239957749955
0.239957749954
0.239957749954
0.239957749954
0.239957749953
0.239957749951
0.239957749825
0.239957744897
0.239957594943
0.23995416162
0.239879256412
0.237417863057
0.23995777771
0.239957755812
0.239957754945
0.239957754918
0.239957754931
0.23995775493
0.239957754916
0.239957754914
0.239957754911
0.239957754782
0.239957749825
0.239957599688
0.239954165934
0.239879259081
0.237417863058
0.239957777859
0.239957755946
0.239957755078
0.239957755066
0.239957755274
0.239957755256
0.239957755076
0.239957755046
0.239957755041
0.239957754911
0.239957749952
0.239957599786
0.239954165819
0.239879259101
0.237417862906
0.239957778047
0.23995775598
0.239957755105
0.239957755077
0.239957755085
0.239957755281
0.239957755244
0.239957755077
0.239957755046
0.239957754914
0.239957749953
0.239957599784
0.2399541658
0.239879258493
0.237417876517
0.23995777783
0.239957755969
0.239957755725
0.239957755695
0.239957755101
0.239957755072
0.239957755082
0.23995775526
0.239957755084
0.239957754917
0.239957749954
0.239957599783
0.239954165757
0.239879257051
0.237417876448
0.239957777291
0.23995775563
0.239957754966
0.239957755334
0.23995775567
0.239957755094
0.239957755055
0.239957755089
0.239957755655
0.23995775494
0.239957749955
0.239957599783
0.239954165754
0.239879257031
0.237417876385
0.239957776498
0.239957755326
0.239957754726
0.239957754975
0.23995775512
0.239957755298
0.239957755068
0.239957755072
0.23995775547
0.239957754937
0.239957749954
0.239957599783
0.239954165797
0.239879259104
0.237417876355
0.239957759778
0.239957754214
0.23995775445
0.239957754714
0.239957755017
0.239957755701
0.239957755081
0.239957755057
0.239957755075
0.239957754918
0.239957749955
0.239957599784
0.239954165757
0.23987925704
0.237417876288
0.239957486379
0.239957737487
0.23995775355
0.23995775449
0.239957754845
0.239957755328
0.23995775512
0.239957755105
0.239957755099
0.239957754945
0.239957749983
0.239957599811
0.239954165781
0.23987925703
0.237417876261
0.239955325202
0.239957579961
0.239957744841
0.239957754886
0.239957755462
0.239957755849
0.23995775616
0.239957756591
0.239957756553
0.239957755836
0.239957750852
0.239957600683
0.23995416669
0.2398792597
0.237417876274
0.239953056028
0.239956657117
0.239957694332
0.239957773349
0.23995777719
0.239957777777
0.239957777928
0.239957778137
0.239957777946
0.239957777752
0.239957772794
0.239957622755
0.239954190366
0.23987928842
0.237417896321
0.23741788144
0.237417869768
0.237417868205
0.237417870053
0.23741786151
0.237417861612
0.237417861643
0.237417861745
0.237417861835
0.237417861944
0.23741786187
0.237417858955
0.237417678536
0.237410040048
0.237387001444
0.23987928931
0.23987925904
0.239879256331
0.239879257461
0.239879258181
0.239879258435
0.23987925819
0.239879258424
0.239879258167
0.239879258482
0.239879258007
0.239879233493
0.239878121791
0.239832363098
0.237410040167
0.239954190226
0.239954166528
0.23995416562
0.239954165606
0.239954165627
0.239954165639
0.239954165626
0.239954165641
0.239954165648
0.239954166238
0.239954161514
0.239954032004
0.239950892322
0.239878120863
0.237417678737
0.239957622691
0.239957600658
0.239957599788
0.239957599762
0.23995759976
0.239957599764
0.239957599764
0.239957599764
0.239957599764
0.239957599675
0.239957594859
0.239957446058
0.239954032102
0.239879232357
0.23741785923
0.239957772745
0.23995775084
0.239957749974
0.239957749946
0.239957749944
0.239957749945
0.239957749942
0.23995774994
0.239957749943
0.239957749817
0.239957744884
0.239957594755
0.239954161598
0.239879256338
0.237417862143
0.239957777697
0.239957755802
0.239957754936
0.239957754909
0.239957754921
0.239957754919
0.239957754906
0.239957754902
0.239957754899
0.239957754774
0.239957749817
0.239957599675
0.23995416584
0.2398792591
0.237417862145
0.239957777844
0.23995775593
0.239957755062
0.239957755051
0.239957755201
0.239957755131
0.239957755061
0.239957755036
0.23995775503
0.239957754899
0.239957749944
0.239957599778
0.239954165807
0.23987925913
0.237417862119
0.239957777942
0.239957755969
0.239957755096
0.239957755068
0.239957755074
0.239957755199
0.239957755153
0.239957755064
0.239957755036
0.239957754901
0.239957749945
0.239957599776
0.239954165787
0.239879258459
0.237417871305
0.239957777974
0.239957756298
0.239957755739
0.239957755699
0.23995775509
0.23995775506
0.239957755065
0.239957755187
0.239957755073
0.239957754903
0.23995774994
0.239957599774
0.239954165743
0.23987925698
0.237417871165
0.239957777944
0.239957756202
0.239957755479
0.239957755716
0.239957755676
0.239957755081
0.239957755046
0.239957755074
0.239957755661
0.239957754927
0.239957749941
0.239957599773
0.239954165739
0.239879256962
0.23741787059
0.239957777801
0.239957755735
0.239957755298
0.239957755427
0.239957755119
0.239957755249
0.239957755058
0.239957755061
0.239957755461
0.239957754926
0.239957749942
0.239957599775
0.239954165785
0.239879259099
0.237417870448
0.239957777114
0.239957755515
0.239957754859
0.239957755276
0.239957755442
0.239957755707
0.239957755069
0.239957755044
0.239957755064
0.239957754909
0.239957749946
0.239957599775
0.239954165743
0.239879256981
0.237417870461
0.239957771842
0.239957755035
0.239957754751
0.239957754875
0.239957755365
0.239957755568
0.23995775511
0.239957755095
0.23995775509
0.239957754935
0.239957749974
0.239957599803
0.239954165767
0.239879256968
0.237417870064
0.239957730329
0.239957752957
0.239957755177
0.239957755641
0.239957756002
0.239957756305
0.239957756054
0.239957756592
0.239957756561
0.239957755825
0.239957750843
0.239957600675
0.239954166678
0.239879259724
0.23741786854
0.239957715448
0.23995776036
0.239957776066
0.239957777412
0.239957777628
0.239957777958
0.239957777913
0.239957778022
0.239957777931
0.239957777743
0.239957772786
0.23995762275
0.239954190356
0.239879288354
0.237417889919
0.237417923108
0.237417872056
0.237417870482
0.237417869148
0.237417903186
0.237417903278
0.237417903316
0.23741790339
0.237417903801
0.237417903869
0.237417902787
0.237417899898
0.237417719479
0.237410081253
0.237387043288
0.239879290034
0.239879256929
0.239879258354
0.239879258369
0.23987925866
0.239879256559
0.239879258659
0.239879256601
0.239879258656
0.239879256542
0.239879256101
0.239879234335
0.239878123007
0.239832366869
0.237410081369
0.239954190959
0.23995416722
0.239954166384
0.239954166349
0.239954166352
0.239954166343
0.23995416639
0.23995416635
0.239954166374
0.239954165571
0.23995416213
0.239954032763
0.239950893205
0.239878123359
0.237417719688
0.239957623274
0.23995760127
0.239957600377
0.239957600439
0.239957600388
0.23995760045
0.239957600451
0.239957600445
0.239957600459
0.239957600281
0.239957594773
0.239957446689
0.239954032906
0.239879234993
0.237417901198
0.239957773419
0.23995775152
0.239957750654
0.239957750633
0.239957750625
0.239957750625
0.23995775056
0.239957750523
0.239957750615
0.239957750505
0.239957745501
0.239957594823
0.239954162338
0.23987925896
0.237417904138
0.239957778382
0.239957756482
0.239957755616
0.239957755587
0.239957755575
0.239957755574
0.239957755582
0.239957755541
0.239957755483
0.239957755446
0.239957750506
0.239957600294
0.239954165677
0.239879257168
0.237417903736
0.239957778471
0.239957756406
0.239957755526
0.239957755495
0.239957755091
0.239957755157
0.239957755691
0.239957755713
0.239957755668
0.239957755479
0.239957750623
0.239957600467
0.23995416648
0.239879257151
0.237417903725
0.239957777972
0.239957756532
0.239957755705
0.239957755684
0.239957755685
0.239957755097
0.239957755329
0.239957755697
0.239957755707
0.239957755473
0.239957750612
0.239957600467
0.239954166507
0.239879256914
0.237417869625
0.239957778343
0.239957755989
0.239957755105
0.239957755098
0.239957755687
0.239957755693
0.23995775558
0.23995775523
0.239957755677
0.239957755433
0.23995775047
0.239957600449
0.239954166545
0.239879259042
0.237417869482
0.239957777861
0.239957755941
0.239957755077
0.239957755054
0.239957755109
0.239957755684
0.239957755712
0.239957755309
0.239957755108
0.239957755545
0.239957750474
0.23995760044
0.239954166541
0.239879259051
0.237417869662
0.239957777903
0.239957755819
0.239957755132
0.23995775506
0.239957755257
0.239957755067
0.2399577557
0.239957755684
0.239957755132
0.239957755565
0.239957750555
0.23995760046
0.239954166507
0.239879256927
0.237417869516
0.239957777419
0.239957755605
0.239957754936
0.239957755106
0.239957755062
0.239957755075
0.239957755699
0.239957755721
0.239957755678
0.239957755592
0.239957750626
0.239957600463
0.239954166524
0.23987925866
0.237417869455
0.239957777165
0.239957755356
0.239957754844
0.239957754968
0.239957755076
0.2399577551
0.239957755708
0.239957755745
0.239957755614
0.239957755619
0.239957750646
0.239957600486
0.23995416657
0.239879259094
0.237417872355
0.23995777746
0.239957756168
0.239957755382
0.239957755717
0.239957756032
0.239957755956
0.239957756064
0.239957756376
0.239957756019
0.239957756454
0.239957751487
0.239957601362
0.239954167396
0.239879257432
0.237417870797
0.239957799023
0.239957777924
0.239957777415
0.239957777517
0.239957777691
0.239957778049
0.239957778164
0.23995777809
0.239957778269
0.239957778305
0.239957773355
0.23995762342
0.23995419115
0.239879290378
0.237417892211
0.237417881461
0.237417874744
0.237417873477
0.237417871802
0.237417861498
0.237417861561
0.237417861735
0.237417861779
0.237417861744
0.237417861814
0.237417861703
0.237417858806
0.237417678374
0.237410039943
0.237387001588
0.239879289115
0.239879256888
0.239879256634
0.23987925668
0.239879257799
0.23987925613
0.23987925714
0.239879256127
0.239879257652
0.239879256134
0.239879255725
0.239879233377
0.239878122039
0.239832363136
0.237410039997
0.239954190205
0.239954166507
0.239954165714
0.239954165624
0.239954165669
0.239954165705
0.239954165621
0.239954166111
0.239954166104
0.239954165521
0.239954161902
0.239954032057
0.239950892381
0.239878120983
0.237417678587
0.239957622709
0.239957600692
0.239957599807
0.23995759978
0.23995759979
0.239957599779
0.239957599777
0.239957599807
0.239957600201
0.239957599937
0.23995759481
0.239957446469
0.239954032169
0.239879232466
0.237417859132
0.239957772762
0.239957750871
0.239957750006
0.239957749979
0.239957749974
0.239957749972
0.239957749959
0.239957749954
0.239957749998
0.239957750252
0.239957745161
0.239957594919
0.239954162125
0.2398792564
0.237417862033
0.239957777774
0.23995775606
0.239957755184
0.239957755147
0.239957755364
0.239957755356
0.239957754948
0.239957754918
0.239957754931
0.239957754831
0.239957750252
0.239957600064
0.239954165702
0.239879256756
0.237417862143
0.239957778458
0.239957756387
0.239957755186
0.23995775515
0.239957755123
0.239957755222
0.239957755659
0.239957755094
0.239957755047
0.239957754934
0.239957749981
0.239957599812
0.239954166237
0.239879256766
0.237417862019
0.239957778023
0.239957756213
0.239957755161
0.23995775547
0.239957755681
0.239957755138
0.239957755332
0.239957755664
0.239957755094
0.239957754964
0.23995774997
0.239957599804
0.239954166268
0.239879256776
0.23741787195
0.239957778221
0.239957755955
0.23995775507
0.239957755072
0.23995775568
0.239957755297
0.239957755567
0.239957755271
0.239957755657
0.239957754991
0.239957749958
0.23995759979
0.239954165772
0.239879257208
0.237417871864
0.239957777845
0.239957755941
0.239957755071
0.239957755045
0.239957755086
0.239957755451
0.239957755688
0.23995775531
0.239957755086
0.239957755384
0.239957749988
0.239957599789
0.239954165787
0.239879257253
0.237417872261
0.239957777962
0.239957755996
0.239957755135
0.239957755055
0.239957755258
0.239957755064
0.23995775511
0.239957755672
0.239957755114
0.239957755363
0.239957749983
0.239957599804
0.239954166065
0.239879256789
0.237417872163
0.239957777633
0.239957755801
0.239957755115
0.239957755109
0.239957755055
0.239957755052
0.23995775548
0.23995775568
0.239957755668
0.239957754976
0.239957749967
0.239957599795
0.239954165782
0.239879257374
0.237417871437
0.239957777425
0.239957755575
0.23995775503
0.239957755146
0.239957755075
0.239957755076
0.239957755215
0.239957755312
0.239957755607
0.239957755567
0.239957750015
0.239957599833
0.23995416581
0.239879258483
0.23741787509
0.239957778165
0.23995775641
0.239957755597
0.239957755901
0.239957756087
0.239957755952
0.239957756117
0.239957756355
0.239957755991
0.239957755959
0.23995775087
0.239957600696
0.23995416715
0.239879257329
0.23741787381
0.239957800142
0.23995777827
0.239957777647
0.239957777722
0.239957777869
0.239957778091
0.239957778162
0.239957778158
0.239957778268
0.239957777967
0.2399577728
0.239957622759
0.239954190386
0.239879288615
0.237417895038
0.237417880892
0.237417885971
0.23741788478
0.237417896485
0.237417860925
0.237417860974
0.237417861005
0.237417861073
0.237417861001
0.237417861099
0.237417860924
0.237417858014
0.237417677579
0.237410039103
0.237387000708
0.239879289125
0.239879257742
0.239879256237
0.239879256669
0.239879257802
0.239879258419
0.239879257152
0.239879258007
0.239879257655
0.239879258465
0.239879258011
0.239879233388
0.239878122042
0.239832363089
0.237410039199
0.239954190185
0.2399541665
0.23995416565
0.239954165593
0.239954165617
0.239954165616
0.239954165604
0.239954166117
0.239954166108
0.239954166254
0.23995416192
0.239954032049
0.239950892357
0.239878120826
0.23741767779
0.239957622674
0.239957600661
0.239957599774
0.239957599769
0.239957599771
0.239957599762
0.239957599759
0.23995759979
0.239957600192
0.239957599946
0.239957595376
0.239957446477
0.239954032153
0.239879232386
0.237417858367
0.239957772749
0.239957750861
0.239957749995
0.239957749972
0.239957749966
0.239957749964
0.23995774993
0.239957749935
0.239957749979
0.239957750243
0.239957745168
0.239957595356
0.239954162128
0.239879256354
0.237417861281
0.239957777764
0.239957756035
0.239957755096
0.239957755057
0.239957755367
0.239957755358
0.239957754936
0.239957754897
0.2399577549
0.23995775481
0.239957750244
0.239957600072
0.239954166394
0.239879258498
0.237417861437
0.23995777849
0.239957756389
0.23995775508
0.239957755152
0.239957755683
0.239957755677
0.239957755691
0.239957755083
0.239957755009
0.239957754899
0.239957749961
0.239957599801
0.239954166252
0.239879258526
0.237417861397
0.239957778468
0.239957756208
0.239957755163
0.239957755486
0.23995775572
0.239957755694
0.239957755643
0.239957755694
0.239957755078
0.239957754935
0.23995774995
0.23995759979
0.239954166275
0.239879258703
0.237417895469
0.239957778235
0.239957756601
0.239957755739
0.239957755718
0.239957755721
0.239957755301
0.239957755617
0.239957755702
0.239957755696
0.239957754981
0.239957749948
0.239957599774
0.239954165749
0.239879256894
0.237417897239
0.239957778509
0.239957756626
0.23995775576
0.239957755732
0.239957755719
0.239957755452
0.239957755697
0.239957755725
0.239957755714
0.239957755386
0.239957749977
0.23995759977
0.239954165758
0.239879256929
0.237417896905
0.239957778502
0.239957756506
0.239957755757
0.239957755728
0.239957755722
0.239957755695
0.239957755108
0.239957755706
0.239957755709
0.239957755365
0.239957749965