/*--------------------------------*- C++ -*----------------------------------*\
| =========                 |                                                 |
| \\      /  F ield         | OpenFOAM: The Open Source CFD Toolbox           |
|  \\    /   O peration     | Version:  2406                                  |
|   \\  /    A nd           | Website:  www.openfoam.com                      |
|    \\/     M anipulation  |                                                 |
\*---------------------------------------------------------------------------*/
FoamFile
{
    version     2.0;
    format      ascii;
    arch        "LSB;label=32;scalar=64";
    class       volScalarField;
    location    "0.01";
    object      nut;
}
// * * * * * * * * * * * * * * * * * * * * * * * * * * * * * * * * * * * * * //

dimensions      [0 2 -1 0 0 0 0];

internalField   nonuniform List<scalar> 
29768
(
0.00182266498247
0.00182266481609
0.00182266490973
0.00182266481983
0.00182266481898
0.00182266482041
0.00182266481738
0.00182266490774
0.00182266490684
0.00182266490943
0.00182266481646
0.00182266489803
0.00182266420484
0.00182263485703
0.00163687743093
0.0435669370043
0.0435664418518
0.0435664409585
0.0435664386914
0.0435664477827
0.0435664508395
0.0435664412951
0.0435664647907
0.0435664764064
0.0435664674786
0.0435662926405
0.0435573133845
0.0431519913416
0.0311741541011
0.00182263485512
0.122847002694
0.122846215645
0.122846183186
0.122846182194
0.122846184807
0.12284618578
0.122846185031
0.122846191539
0.122846188965
0.12284585618
0.122832847081
0.122430724211
0.113665511954
0.0431519870366
0.0018226641095
0.134259402251
0.134259313091
0.134259309016
0.134259308872
0.13425930908
0.134259309167
0.134259309211
0.134259309382
0.134259298635
0.134258795654
0.13423991358
0.133685319983
0.122430723706
0.0435572950416
0.00182266489251
0.13482462795
0.134824614255
0.134824613718
0.13482461371
0.134824613714
0.13482461372
0.134824613724
0.134824613528
0.134824602185
0.134824086627
0.134804787955
0.13423991359
0.12283285382
0.043566305152
0.00182266490908
0.134843910515
0.13484392876
0.134843930117
0.13484393019
0.134843930195
0.134843930196
0.134843930193
0.13484392998
0.134843918614
0.13484340253
0.134824086595
0.134258795415
0.122845857923
0.0435664614951
0.00182266490872
0.134842772277
0.134844348151
0.134844441624
0.134844446114
0.134844446289
0.134844446297
0.134844446294
0.134844446081
0.134844434714
0.134843918612
0.134824602147
0.134259298461
0.122846192922
0.0435664814972
0.0018226649088
0.134770495415
0.134840122012
0.13484424729
0.134844449239
0.134844457387
0.134844457654
0.13484445766
0.134844457447
0.13484444608
0.134843929979
0.134824613494
0.134259309387
0.122846198379
0.0435664776655
0.00182266490914
0.132516311806
0.134699708356
0.134836961157
0.134844140846
0.134844447141
0.134844457584
0.134844457866
0.13484445766
0.134844446294
0.134843930192
0.134824613697
0.13425930933
0.122846193743
0.0435664603213
0.00182266490912
0.0962025252773
0.131558265101
0.134644938865
0.134835121153
0.134844123618
0.134844448381
0.134844457657
0.134844457659
0.134844446297
0.134843930195
0.134824613694
0.134259309172
0.122846191212
0.0435664488705
0.00182266490909
0.013532699664
0.0959070820846
0.131195842363
0.134640830413
0.13483650573
0.13484422279
0.134844452231
0.134844457551
0.134844446295
0.134843930194
0.134824613685
0.134259309017
0.122846188572
0.0435664392727
0.00182266490898
0.000791619110996
0.0178302257517
0.0972350281438
0.131800792161
0.134710254519
0.134840254199
0.134844355164
0.134844455517
0.13484444626
0.134843930193
0.134824613672
0.134259308675
0.122846182878
0.0435664240512
0.00182266481838
3.22862535347e-05
0.000336035710465
0.0195565673796
0.108435083925
0.13341052941
0.134796467178
0.134843245015
0.134844432725
0.134844445814
0.134843930197
0.134824613692
0.134259309055
0.122846190229
0.0435664529186
0.00182266490837
0.0043829100274
0.00304890324801
0.00163007758366
0.0508670932221
0.127112473884
0.134560294599
0.134836932167
0.134844298885
0.134844443731
0.134843930529
0.134824614254
0.134259313025
0.122846219064
0.043566436558
0.0018226648194
0.134831460674
0.00438280615058
0.00151089411436
0.0228217234613
0.115447380345
0.133987287137
0.134818961261
0.134843873812
0.134844445224
0.134843940597
0.134824628402
0.134259402133
0.12284700338
0.0435669178551
0.00182266498612
0.00182266404407
0.0018226639667
0.0018226639672
0.00182266396675
0.00182266396635
0.00182266396637
0.00182266396635
0.00182266396683
0.0018226639668
0.0018226639668
0.00182266396611
0.00182266395533
0.00182266326197
0.00182263390898
0.00163691714741
0.0435665670397
0.0435660790468
0.0435660705072
0.0435660753126
0.043566081612
0.0435660876314
0.0435660935635
0.0435660997826
0.0435661051995
0.0435661065087
0.0435659404457
0.0435569363939
0.04315162468
0.0311738883622
0.00182263390939
0.122846576137
0.122845793306
0.12284575947
0.122845760295
0.122845765123
0.122845764526
0.12284576701
0.122845769719
0.122845764591
0.122845437441
0.122832426702
0.122430279123
0.113664880471
0.043151626623
0.00182266326217
0.134259356455
0.134259267686
0.134259263512
0.134259263513
0.13425926397
0.134259263787
0.134259263987
0.134259263997
0.134259253058
0.1342587505
0.134239866358
0.133685236588
0.122430287924
0.0435569342963
0.00182266395605
0.134824621822
0.134824607735
0.13482460717
0.13482460716
0.134824607181
0.134824607173
0.134824607181
0.134824606979
0.134824595627
0.134824080027
0.134804779412
0.134239867379
0.122832436866
0.0435659388474
0.00182266396752
0.134843933737
0.134843925892
0.134843925673
0.134843925669
0.13484392567
0.13484392567
0.134843925666
0.134843925453
0.134843914085
0.134843397932
0.134824080068
0.134258751288
0.122845445158
0.0435661045552
0.00182266396774
0.134844305235
0.134844433365
0.134844441432
0.134844441829
0.134844441844
0.134844441845
0.134844441841
0.134844441627
0.134844430258
0.134843914088
0.13482459569
0.1342592542
0.122845775273
0.0435661037697
0.00182266396783
0.134837429785
0.134844038177
0.134844433338
0.134844452441
0.134844453189
0.134844453213
0.13484445321
0.134844452996
0.134844441627
0.134843925456
0.134824607037
0.134259265093
0.122845780224
0.0435660989131
0.00182266396823
0.134588257173
0.134829137157
0.134843700119
0.13484442341
0.134844452467
0.134844453402
0.134844453423
0.13484445321
0.134844441841
0.134843925669
0.134824607242
0.134259265146
0.12284577828
0.0435660937748
0.00182266396819
0.128607132004
0.13443487835
0.134822720632
0.134843542196
0.134844423321
0.13484445264
0.13484445341
0.134844453213
0.134844441848
0.134843925673
0.134824607237
0.134259264971
0.122845775942
0.0435660881356
0.00182266396815
0.0715173021983
0.127951343724
0.134400798144
0.134823780893
0.134843727542
0.13484443339
0.134844453002
0.134844453206
0.134844441847
0.134843925672
0.134824607229
0.134259264821
0.122845773907
0.0435660830119
0.00182266396812
0.010825346424
0.080120328538
0.128822187104
0.134511632348
0.134831795543
0.1348440868
0.134844444929
0.134844453078
0.134844441843
0.134843925672
0.134824607221
0.134259264677
0.122845771884
0.0435660777794
0.00182266396759
0.00108468193541
0.01026102675
0.0899171663701
0.131443250347
0.1347009551
0.134840029257
0.134844345672
0.134844451114
0.13484444184
0.134843925682
0.134824607234
0.134259264734
0.122845771922
0.04356607524
0.00182266396808
0.00374844811203
0.00353906599616
0.0352494476919
0.117607806535
0.133907059609
0.134811672956
0.134843585674
0.134844435074
0.134844441936
0.134843926048
0.134824607802
0.134259268926
0.122845806052
0.0435660847705
0.00182266396768
0.134831460674
0.00374843213547
0.00828936345952
0.0637514040493
0.129065008296
0.134625427482
0.134838394227
0.134844329302
0.134844449799
0.13484393622
0.134824621934
0.134259357849
0.12284659014
0.0435665745474
0.00182266404532
0.00182266403391
0.00182266395464
0.00182266395468
0.00182266395483
0.00182266395702
0.00182266395715
0.00182266395721
0.00182266395715
0.00182266395741
0.00182266395767
0.00182266395603
0.0018226639448
0.00182266325149
0.0018226338985
0.00163692702297
0.0435665571765
0.0435660703426
0.0435660616255
0.0435660672652
0.0435660734796
0.0435660795678
0.0435660858915
0.0435660919938
0.0435660970603
0.0435660987736
0.0435659327432
0.0435569287108
0.0431516170617
0.0311738837165
0.00182263389896
0.122846563813
0.122845782228
0.12284574834
0.122845749433
0.122845753497
0.122845752768
0.122845756178
0.122845758849
0.122845753151
0.122845425581
0.122832414977
0.122430267065
0.113664857605
0.0431516149017
0.00182266325228
0.134259355175
0.134259266541
0.134259262363
0.134259262377
0.134259262657
0.134259262544
0.134259262859
0.13425926287
0.134259251868
0.134258749211
0.134239865055
0.133685234056
0.122430274004
0.0435569268541
0.00182266394718
0.134824621722
0.134824607609
0.134824607042
0.134824607033
0.134824607042
0.13482460703
0.134824607054
0.134824606852
0.134824595498
0.134824079876
0.134804779202
0.134239865834
0.122832423929
0.0435659315663
0.00182266395837
0.134843936082
0.134843925968
0.134843925604
0.134843925595
0.134843925594
0.134843925594
0.134843925591
0.134843925378
0.134843914009
0.134843397853
0.134824079914
0.134258749784
0.122845432191
0.0435660972353
0.00182266395843
0.134844447499
0.134844441858
0.134844441766
0.134844441769
0.13484444177
0.13484444177
0.134844441767
0.134844441553
0.134844430184
0.134843914011
0.134824595537
0.134259252677
0.122845761928
0.0435660956668
0.00182266395867
0.134844223999
0.134844438421
0.13484445244
0.134844453111
0.134844453138
0.134844453139
0.134844453135
0.134844452921
0.134844441553
0.134843925379
0.134824606885
0.134259263592
0.122845767208
0.0435660912094
0.00182266395649
0.134834847726
0.134843848433
0.134844423367
0.134844452218
0.134844453317
0.134844453352
0.134844453349
0.134844453135
0.134844441767
0.134843925592
0.134824607089
0.134259263624
0.122845765106
0.043566085755
0.00182266395635
0.13455933966
0.134825873855
0.134843493987
0.134844414767
0.134844452167
0.134844453325
0.134844453352
0.134844453139
0.134844441771
0.134843925595
0.134824607084
0.134259263453
0.122845762751
0.0435660800165
0.0018226639562
0.129330750727
0.13443598518
0.134821464611
0.134843477396
0.134844421329
0.134844452546
0.134844453335
0.134844453138
0.134844441772
0.134843925595
0.134824607075
0.134259263288
0.122845760536
0.0435660741793
0.00182266395608
0.0850252120629
0.128940828166
0.13445269415
0.134826453676
0.13484383341
0.134844436544
0.134844453004
0.134844453133
0.134844441771
0.134843925595
0.134824607068
0.134259263147
0.122845758538
0.0435660689989
0.00182266395597
0.011312036271
0.0870918201196
0.130420324595
0.134617428528
0.134836110502
0.134844215871
0.134844447919
0.134844453045
0.134844441782
0.134843925606
0.134824607077
0.13425926314
0.12284575774
0.0435660644018
0.00182266395592
0.00266732210836
0.026195476192
0.108167430999
0.132986417931
0.13476713959
0.13484208397
0.134844396134
0.134844452391
0.134844442122
0.134843925975
0.134824607646
0.134259267335
0.122845791912
0.0435660741119
0.00182266395596
0.00374835236599
0.00298274714183
0.033621698463
0.121180006657
0.134238903433
0.134825607529
0.134844000477
0.134844454219
0.134844452062
0.134843936181
0.134824621779
0.134259356233
0.122846575715
0.0435665627841
0.00182266403315
0.00182266419305
0.00182266411271
0.00182266411279
0.001822664113
0.00182266411652
0.0018226641167
0.00182266411698
0.00182266411725
0.00182266411804
0.0018226641186
0.00182266411537
0.00182266410422
0.00182266341097
0.0018226340589
0.00163696029986
0.043566586669
0.0435661377723
0.0435661288922
0.0435661328809
0.0435661378104
0.043566107959
0.0435661159331
0.0435661519123
0.0435661547929
0.0435661224048
0.0435659699726
0.043556986352
0.0431516750072
0.0311739278284
0.00182263405935
0.12284657725
0.122845833095
0.122845800411
0.122845800515
0.122845796479
0.122845764717
0.122845798691
0.12284580849
0.122845799686
0.122845435127
0.122832446552
0.122430316243
0.113664918645
0.0431516562134
0.00182266341166
0.134259356394
0.134259271274
0.134259267235
0.134259267133
0.134259266383
0.134259263638
0.134259267197
0.134259267576
0.134259256244
0.134258750124
0.134239868293
0.133685242668
0.12243032073
0.0435569740936
0.00182266410826
0.134824622087
0.134824608096
0.134824607527
0.134824607504
0.134824607462
0.134824607403
0.134824607527
0.134824607322
0.134824595967
0.134824080249
0.134804779856
0.134239871068
0.122832475066
0.0435659889961
0.00182266411919
0.134843936432
0.13484392625
0.13484392588
0.134843925871
0.134843925868
0.134843925867
0.134843925867
0.134843925654
0.134843914286
0.134843398135
0.134824080412
0.134258754687
0.122845478354
0.0435661243378
0.00182266411855
0.134844452449
0.134844442443
0.134844442041
0.13484444203
0.134844442034
0.134844442036
0.134844442035
0.134844441822
0.134844430453
0.134843914288
0.134824596021
0.134259257225
0.12284579811
0.0435661189817
0.00182266411837
0.134844458596
0.134844453542
0.134844453466
0.134844453405
0.134844453404
0.134844453404
0.134844453402
0.134844453189
0.134844441822
0.134843925657
0.134824607403
0.134259268734
0.122845819593
0.0435661516323
0.0018226641149
0.134844235537
0.134844438635
0.134844452985
0.134844453658
0.134844453621
0.13484445362
0.134844453616
0.134844453402
0.134844442035
0.13484392587
0.134824607608
0.134259268781
0.122845817893
0.0435661473107
0.00182266411468
0.134836636552
0.134843939891
0.13484442712
0.134844452518
0.134844453658
0.134844453625
0.13484445362
0.134844453402
0.134844442033
0.134843925872
0.134824607604
0.13425926865
0.122845816059
0.043566142724
0.00182266411447
0.13464327336
0.134831066192
0.134843753441
0.134844425197
0.134844452862
0.134844453665
0.13484445362
0.134844453402
0.134844442035
0.134843925873
0.134824607601
0.13425926859
0.122845815019
0.0435661390532
0.00182266411428
0.131211624158
0.134588816462
0.134830483956
0.134843873269
0.13484443456
0.13484445325
0.134844453662
0.134844453406
0.134844442034
0.134843925875
0.134824607589
0.134259268251
0.122845808111
0.0435661055664
0.00182266411405
0.0963413613593
0.131473812749
0.134646374125
0.13483580201
0.134844162482
0.1348444457
0.134844453569
0.134844453417
0.134844442046
0.134843925885
0.134824607606
0.13425926847
0.122845812641
0.0435661311437
0.00182266411398
0.0313394369542
0.111040456256
0.132963708017
0.134752192478
0.134841149455
0.134844361178
0.134844452023
0.134844453823
0.134844442403
0.134843926252
0.134824608167
0.134259272459
0.122845841569
0.0435661108602
0.00182266411392
0.0135133450305
0.0379110644074
0.120144214893
0.134074476541
0.134816663703
0.134843684334
0.134844446205
0.134844463629
0.134844452491
0.134843936459
0.134824622306
0.134259361586
0.12284663099
0.0435666309712
0.00182266419109
0.00182266402823
0.00182266400362
0.00182266400374
0.00182266400392
0.00182266395167
0.00182266395195
0.00182266395245
0.00182266395299
0.00182266395319
0.00182266395375
0.00182266395409
0.0018226639429
0.00182266324959
0.00182263389665
0.00163696886083
0.0435665887051
0.0435661020449
0.0435660941819
0.043566100239
0.043566105321
0.0435661094443
0.043566116794
0.0435661359911
0.0435661167658
0.0435661232276
0.0435659702554
0.0435569597333
0.0431516294188
0.0311739103296
0.00182263389709
0.122846577591
0.122845807991
0.122845776251
0.122845791105
0.122845787839
0.122845764768
0.122845780299
0.122845801108
0.122845766739
0.122845435151
0.12283244373
0.122430280399
0.113664867678
0.0431516308717
0.00182266325034
0.134259356094
0.134259268834
0.134259265299
0.134259266343
0.134259265705
0.134259263311
0.134259264703
0.134259266717
0.134259253002
0.13425874978
0.134239866987
0.133685235061
0.12243027993
0.0435569435062
0.00182266394339
0.134824621754
0.134824607677
0.134824607138
0.134824607141
0.13482460711
0.134824607071
0.134824607117
0.134824606956
0.134824595546
0.134824079909
0.134804779283
0.134239866663
0.122832433513
0.0435659659055
0.00182266395441
0.134843936157
0.134843925899
0.134843925598
0.13484392553
0.134843925594
0.134843925597
0.134843925587
0.13484392538
0.13484391401
0.134843397857
0.134824080053
0.134258754293
0.122845478058
0.0435661253886
0.00182266395441
0.134844452199
0.134844442141
0.134844441782
0.134844441773
0.134844441845
0.134844441824
0.134844441706
0.134844441548
0.134844430184
0.134843914015
0.134824595668
0.134259256835
0.12284579775
0.0435661202609
0.00182266395383
0.134844463604
0.134844453525
0.134844453162
0.134844453149
0.134844453151
0.134844453208
0.134844453193
0.134844452931
0.134844441553
0.13484392538
0.13482460695
0.134259264646
0.122845788621
0.0435661355095
0.00182266400613
0.134844459847
0.134844453473
0.134844453672
0.134844453646
0.134844453372
0.13484445336
0.134844453359
0.134844453199
0.134844441785
0.134843925594
0.134824607119
0.134259264351
0.122845775013
0.0435661213322
0.00182266400587
0.134844310786
0.134844443675
0.134844452819
0.134844453484
0.134844453639
0.134844453371
0.134844453352
0.134844453111
0.134844442109
0.13484392561
0.134824607117
0.134259264247
0.122845780157
0.0435661193334
0.00182266400562
0.134839709326
0.134844164059
0.134844438811
0.134844452777
0.134844453368
0.134844453426
0.134844453358
0.134844453148
0.134844442009
0.134843925609
0.134824607144
0.134259264436
0.122845786159
0.0435661240067
0.00182266400551
0.134729399395
0.134837981698
0.134844134535
0.13484444072
0.134844452962
0.134844453668
0.134844453367
0.134844453143
0.134844441785
0.134843925594
0.134824607159
0.134259265691
0.122845794519
0.0435661059854
0.00182266400525
0.132931013264
0.134741320688
0.134839318877
0.134844246066
0.134844446652
0.134844453333
0.134844453383
0.134844453165
0.134844441795
0.134843925607
0.134824607163
0.134259265314
0.122845789477
0.0435661162911
0.00182266400515
0.122188774836
0.133888968718
0.134787991931
0.134841970198
0.134844370071
0.134844451477
0.134844453811
0.134844453875
0.134844442486
0.134843925991
0.134824607744
0.134259270034
0.122845823672
0.0435661120043
0.0018226640052
0.112178134673
0.128984759817
0.134403380181
0.13482372003
0.134843752075
0.134844444647
0.134844463431
0.134844463695
0.134844452247
0.134843936186
0.134824621857
0.134259358126
0.122846600264
0.0435665960532
0.00182266408223
0.00182266402505
0.0018226639802
0.00182266397419
0.00182266398129
0.00182266394847
0.00182266394886
0.00182266394897
0.00182266394937
0.00182266394971
0.00182266395013
0.00182266394985
0.00182266393865
0.00182266324534
0.00182263389239
0.00163699406332
0.0435666441749
0.0435660986415
0.0435660930652
0.0435660991323
0.0435661030125
0.0435661529138
0.0435661395049
0.0435661383762
0.0435661145741
0.0435661622895
0.0435659774143
0.0435569594271
0.04315162854
0.0311739111918
0.00182263389285
0.122846623052
0.122845809394
0.122845777153
0.122845794613
0.122845796723
0.122845806756
0.122845781494
0.122845802679
0.122845766096
0.122845472412
0.122832441023
0.122430280323
0.113664867138
0.0431516285532
0.00182266324612
0.13425935998
0.134259268967
0.134259265385
0.134259266709
0.134259266806
0.134259267159
0.134259264778
0.134259266832
0.134259252933
0.134258753125
0.134239866937
0.133685234858
0.122430278261
0.0435569423245
0.0018226639397
0.134824621879
0.134824607682
0.134824607144
0.134824607177
0.134824607184
0.13482460719
0.134824607126
0.134824606975
0.134824595553
0.134824080004
0.13480477927
0.134239866349
0.12283243267
0.0435659675303
0.0018226639509
0.134843936158
0.134843925896
0.134843925597
0.134843925532
0.134843925596
0.134843925598
0.134843925587
0.134843925379
0.134843914008
0.134843397859
0.134824080077
0.134258754599
0.122845485475
0.0435661617494
0.0018226639509
0.134844452177
0.134844442124
0.134844441776
0.134844441767
0.134844441828
0.134844441768
0.134844441701
0.134844441546
0.134844430182
0.134843914013
0.134824595705
0.134259257563
0.122845816221
0.0435661623743
0.0018226639508
0.134844463585
0.134844453504
0.134844453142
0.134844453147
0.134844453148
0.134844453179
0.134844453167
0.134844452927
0.134844441551
0.134843925378
0.13482460695
0.134259264537
0.12284578912
0.0435661380414
0.0018226639861
0.134844463786
0.13484445387
0.134844453638
0.134844453624
0.134844453368
0.134844453357
0.134844453353
0.134844453178
0.134844441782
0.134843925591
0.134824607106
0.134259264212
0.122845774898
0.0435661237286
0.00182266398556
0.13484446168
0.13484445374
0.134844453549
0.134844453658
0.134844453617
0.134844453367
0.134844453349
0.134844453123
0.134844442116
0.134843925605
0.134824607105
0.134259264128
0.122845780441
0.0435661222039
0.00182266398336
0.13484438844
0.134844449198
0.134844453297
0.134844453531
0.134844453333
0.134844453376
0.134844453355
0.134844453145
0.134844442007
0.134843925605
0.134824607146
0.134259264379
0.122845787088
0.0435661279567
0.00182266398281
0.13484242209
0.134844345175
0.134844448165
0.134844453307
0.13484445353
0.134844453629
0.134844453348
0.134844453139
0.134844441783
0.134843925592
0.13482460716
0.134259265768
0.122845796588
0.0435661213626
0.00182266398286
0.134806715526
0.134842575017
0.134844364378
0.134844449832
0.134844453427
0.13484445358
0.134844453362
0.134844453162
0.134844441793
0.134843925606
0.134824607168
0.134259265357
0.122845790891
0.0435661189537
0.00182266398134
0.134554731516
0.134825624482
0.134843410947
0.134844409427
0.134844452361
0.134844453886
0.134844453767
0.134844453861
0.134844442494
0.134843925988
0.134824607749
0.13425927014
0.122845824147
0.0435661557621
0.00182266397548
0.134339542366
0.134742710126
0.134836707438
0.134844100036
0.1348444514
0.134844463539
0.13484446379
0.134844463615
0.134844452238
0.134843936186
0.134824621863
0.134259358172
0.122846601249
0.0435665927239
0.00182266405763
0.00182266418517
0.00182266398899
0.00182266398294
0.00182266397782
0.00182266410862
0.00182266410897
0.00182266410911
0.0018226641094
0.00182266411098
0.00182266411124
0.00182266410708
0.00182266409598
0.00182266340268
0.00182263405074
0.00163700029381
0.0435666337572
0.0435661025353
0.0435660989841
0.0435661050891
0.0435661068697
0.0435661335935
0.043566140145
0.0435661588311
0.0435661150638
0.0435661466767
0.0435659771662
0.043556968163
0.0431516308922
0.0311739298447
0.00182263405118
0.122846620952
0.122845824389
0.122845790563
0.12284578995
0.122845790013
0.122845791175
0.122845791895
0.122845778778
0.122845769535
0.122845460004
0.122832442513
0.122430288898
0.1136648752
0.0431516332706
0.00182266340348
0.13425936024
0.134259270717
0.134259266869
0.134259266373
0.134259266365
0.134259266197
0.134259266221
0.134259264227
0.134259253623
0.134258752508
0.134239867766
0.133685240009
0.122430288228
0.0435569428675
0.00182266410098
0.134824622228
0.134824608072
0.134824607535
0.134824607509
0.134824607506
0.134824607491
0.134824607459
0.134824607202
0.134824595894
0.134824080332
0.134804779827
0.134239870565
0.122832474428
0.0435659938817
0.00182266411227
0.134843936483
0.13484392634
0.134843925938
0.134843925964
0.134843925869
0.134843925868
0.134843925906
0.134843925651
0.134843914259
0.134843398133
0.134824080324
0.134258751024
0.122845442504
0.0435661235608
0.00182266411073
0.13484445252
0.134844442326
0.134844441923
0.134844441917
0.13484444178
0.134844441815
0.134844442126
0.134844441827
0.134844430453
0.13484391427
0.134824595959
0.134259254031
0.122845774212
0.0435661257019
0.00182266411069
0.134844463594
0.13484445378
0.134844453408
0.134844453386
0.134844453391
0.134844453156
0.134844453275
0.134844453187
0.134844441821
0.134843925638
0.134824607432
0.134259268847
0.122845821893
0.043566159389
0.00182266397965
0.134844464022
0.134844453747
0.134844453374
0.134844453369
0.134844453606
0.134844453606
0.134844453546
0.134844453222
0.134844442015
0.134843925804
0.134824607533
0.134259268638
0.122845815202
0.0435661429271
0.0018226639791
0.134844463759
0.134844453724
0.134844453366
0.13484445331
0.134844453377
0.134844453608
0.134844453638
0.134844453261
0.134844441694
0.13484392585
0.134824607534
0.134259268521
0.122845814198
0.0435661423308
0.00182266397979
0.134844462974
0.134844453622
0.134844453396
0.134844453359
0.134844453428
0.134844453354
0.134844453609
0.134844453386
0.134844441702
0.134843925861
0.13482460761
0.134259268967
0.122845819911
0.0435661501892
0.00182266397923
0.134844438832
0.134844452255
0.134844453242
0.134844453383
0.134844453362
0.134844453366
0.13484445362
0.134844453403
0.134844442011
0.134843925874
0.134824607616
0.134259268719
0.122845813333
0.0435661239887
0.001822663979
0.13484398943
0.13484442935
0.134844452142
0.134844453271
0.134844453364
0.134844453378
0.134844453659
0.134844453413
0.134844441973
0.13484392589
0.134824607654
0.134259269022
0.122845818948
0.0435661349354
0.00182266399014
0.134840520095
0.134844200133
0.134844439575
0.134844453065
0.134844453762
0.134844453731
0.134844453768
0.134844453723
0.134844442077
0.134843926241
0.134824608185
0.134259272595
0.122845832443
0.0435661469394
0.00182266398415
0.134837662311
0.134843173884
0.134844363149
0.13484445891
0.134844463555
0.134844463865
0.134844463918
0.134844463653
0.134844452373
0.134843936441
0.134824622283
0.134259361542
0.122846626317
0.04356659744
0.00182266406644
0.00182266402513
0.00182266399932
0.00182266399445
0.00182266398801
0.00182266394842
0.00182266394866
0.00182266394933
0.0018226639495
0.00182266394936
0.00182266394963
0.0018226639492
0.00182266393808
0.00182266324472
0.00182263389199
0.00163701827897
0.0435666376856
0.043566106814
0.0435661071193
0.0435661131695
0.0435661147974
0.0435661366391
0.0435661626982
0.0435661327002
0.0435661172618
0.0435661480919
0.0435659797771
0.0435569697115
0.0431516319884
0.0311738954767
0.0018226338922
0.122846622804
0.122845801103
0.122845789096
0.122845790863
0.122845790942
0.122845791438
0.122845778158
0.122845768212
0.122845775766
0.122845460451
0.122832451633
0.122430289549
0.113664887114
0.0431516395837
0.00182266324554
0.134259360298
0.134259268043
0.134259265095
0.134259266059
0.134259266105
0.134259265862
0.134259264673
0.134259263442
0.134259254279
0.134258752344
0.134239866683
0.13368523751
0.122430284949
0.0435569432569
0.00182266393933
0.134824621876
0.134824607688
0.134824607128
0.134824607171
0.134824607175
0.134824607152
0.134824607112
0.134824606882
0.134824595614
0.134824080205
0.134804779451
0.134239866747
0.122832433863
0.0435659651902
0.00182266395047
0.134843936141
0.134843926106
0.134843925695
0.134843925719
0.134843925796
0.134843925749
0.134843925552
0.134843925375
0.13484391402
0.134843397878
0.134824080188
0.134258750466
0.122845439434
0.0435661233291
0.0018226639509
0.134844452498
0.134844442311
0.134844441733
0.134844441725
0.134844441788
0.134844441844
0.13484444211
0.134844441521
0.134844430178
0.13484391402
0.134824595579
0.134259253237
0.122845771007
0.0435661250588
0.00182266395042
0.134844463618
0.134844453614
0.134844453163
0.134844453364
0.134844453394
0.134844453173
0.134844453265
0.134844453169
0.134844441481
0.1348439254
0.134824606948
0.134259264592
0.122845780311
0.0435661334072
0.00182266398858
0.134844463944
0.134844453717
0.134844453361
0.134844453365
0.134844453652
0.134844453457
0.13484445354
0.134844453238
0.134844442086
0.134843925635
0.13482460715
0.134259264837
0.122845779768
0.0435661233028
0.00182266398825
0.134844463745
0.134844453704
0.134844453346
0.134844453305
0.134844453371
0.134844453525
0.134844453625
0.134844453254
0.134844441687
0.134843925852
0.134824607175
0.134259264907
0.122845780648
0.0435661258521
0.00182266398978
0.134844463815
0.134844453736
0.134844453378
0.13484445334
0.134844453426
0.134844453357
0.134844453279
0.134844453381
0.134844441721
0.13484392584
0.134824607175
0.13425926489
0.122845780712
0.0435661250688
0.0018226639894
0.134844463433
0.134844453622
0.134844453364
0.134844453366
0.134844453343
0.13484445336
0.134844453571
0.134844453479
0.134844442013
0.134843925623
0.134824607152
0.134259265218
0.122845788247
0.0435661565151
0.00182266398661
0.134844459095
0.134844453291
0.13484445331
0.134844453378
0.134844453343
0.134844453355
0.134844453386
0.134844453174
0.13484444197
0.134843925946
0.134824607191
0.134259265089
0.122845784953
0.043566135114
0.00182266400065
0.134844424087
0.134844451283
0.134844453386
0.134844453684
0.134844453784
0.134844453709
0.134844453789
0.134844453699
0.134844442062
0.134843926054
0.134824607782
0.134259270315
0.122845833443
0.0435661501059
0.00182266399573
0.134844403901
0.134844450838
0.134844462654
0.134844463641
0.134844463762
0.134844463876
0.134844463881
0.134844463684
0.13484445237
0.134843936301
0.134824621872
0.134259358083
0.122846600868
0.0435666015769
0.0018226640773
0.00182266402294
0.00182266404246
0.00182266403789
0.00182266408287
0.00182266394622
0.0018226639464
0.00182266394652
0.00182266394679
0.00182266394651
0.00182266394688
0.00182266394621
0.00182266393503
0.00182266324167
0.00182263388876
0.00163702132928
0.0435666582182
0.0435661104079
0.043566140717
0.043566154308
0.0435661561638
0.043566164464
0.0435661404998
0.0435661334842
0.0435661220145
0.043566168469
0.0435659857362
0.0435569922163
0.043151637638
0.0311738952461
0.00182263388913
0.122846599525
0.122845800969
0.122845802212
0.122845810717
0.12284581207
0.122845811123
0.122845774784
0.122845788245
0.122845764397
0.122845474401
0.122832433904
0.122430315117
0.113664872281
0.0431516399828
0.00182266324248
0.134259357413
0.134259267974
0.134259264838
0.134259267596
0.134259267727
0.13425926751
0.134259264599
0.134259265342
0.134259253277
0.134258753489
0.134239866567
0.133685237272
0.122430284964
0.0435569467211
0.00182266393639
0.134824621778
0.134824607682
0.134824607113
0.134824607222
0.13482460723
0.134824607213
0.134824607119
0.134824606929
0.134824595554
0.134824080249
0.134804779449
0.134239866893
0.122832433445
0.0435659656014
0.00182266394758
0.134843936087
0.134843925993
0.134843925581
0.134843925574
0.134843925797
0.134843925748
0.134843925538
0.134843925367
0.134843914004
0.134843397877
0.134824080322
0.134258754599
0.122845480762
0.0435661347488
0.00182266394818
0.134844452455
0.134844442285
0.134844441671
0.134844441718
0.134844442022
0.134844442013
0.134844442019
0.134844441514
0.134844430158
0.134843914004
0.134824595667