/*--------------------------------*- C++ -*----------------------------------*\
| =========                 |                                                 |
| \\      /  F ield         | OpenFOAM: The Open Source CFD Toolbox           |
|  \\    /   O peration     | Version:  2406                                  |
|   \\  /    A nd           | Website:  www.openfoam.com                      |
|    \\/     M anipulation  |                                                 |
\*---------------------------------------------------------------------------*/
FoamFile
{
    version     2.0;
    format      ascii;
    arch        "LSB;label=32;scalar=64";
    class       volScalarField;
    location    "0.01";
    object      omega_0;
}
// * * * * * * * * * * * * * * * * * * * * * * * * * * * * * * * * * * * * * //

dimensions      [0 0 -1 0 0 0 0];

internalField   nonuniform List<scalar> 
29768
(
130.258787476
130.258775611
130.258782288
130.258775878
130.258775817
130.258775919
130.258775703
130.258782146
130.258782082
130.258782267
130.258775638
130.258781454
130.258732023
130.256639258
130.250319826
5.50599431508
5.50605617521
5.50605626803
5.50605656182
5.50605540756
5.50605502922
5.50605623503
5.5060532557
5.50605179933
5.50605291465
5.50607500977
5.50720953964
5.55891242146
7.69330865793
130.256639122
1.95327680811
1.95328912944
1.95328963854
1.95328965409
1.95328961253
1.95328959709
1.953289609
1.95328950552
1.95328954646
1.95329483701
1.95350167538
1.95991688126
2.1110264679
5.55891297231
130.258725225
1.78726874175
1.7872697645
1.78726981228
1.78726981399
1.78726981121
1.78726981005
1.78726980947
1.78726980721
1.78726995025
1.78727664505
1.78752800541
1.79494245408
1.95991689009
5.50721184701
130.25878106
1.779777082
1.77977710031
1.77977710096
1.77977710086
1.7797771008
1.77977710071
1.77977710066
1.77977710324
1.77977725297
1.77978405775
1.78003881513
1.78752800534
1.95350156917
5.50607344875
130.258782242
1.77952261208
1.7795222089
1.77952218456
1.77952218339
1.77952218333
1.77952218332
1.77952218336
1.77952218616
1.77952233613
1.77952914593
1.77978405819
1.78727664829
1.95329481021
5.50605368051
130.258782217
1.77953763225
1.77951667515
1.77951543529
1.77951537582
1.77951537346
1.77951537337
1.77951537342
1.77951537622
1.7795155262
1.77952233616
1.77977725346
1.78726995263
1.95328948447
5.50605116659
130.258782222
1.78049189715
1.77957244265
1.77951799964
1.77951533458
1.77951522703
1.7795152235
1.77951522344
1.77951522625
1.77951537622
1.77952218618
1.77977710369
1.7872698072
1.95328939768
5.50605163741
130.258782247
1.81077590948
1.78142730363
1.77961414815
1.77951940399
1.77951536226
1.77951522445
1.77951522072
1.77951522344
1.77951537341
1.77952218337
1.77977710102
1.78726980795
1.95328947142
5.50605384133
130.258782245
2.49418946012
1.82396051542
1.78215183493
1.77963843011
1.77951963132
1.77951534592
1.77951522349
1.77951522345
1.77951537338
1.77952218333
1.77977710107
1.78726981006
1.95328951167
5.50605529133
130.258782243
17.7137613054
2.50185967376
1.82899818457
1.78220620307
1.77962015793
1.77951832271
1.77951529511
1.77951522488
1.77951537341
1.77952218335
1.77977710118
1.78726981211
1.95328955359
5.50605648811
130.258782235
296.418752362
13.4464187732
2.46769163412
1.82060432921
1.78128783914
1.77957069154
1.77951657598
1.77951525174
1.77951537387
1.77952218337
1.77977710137
1.78726981667
1.95328964415
5.5060584225
130.258775775
7683.2567841
677.019011468
12.2606994303
2.21285074603
1.79863961773
1.78014870828
1.77953122541
1.77951555272
1.77951537998
1.77952218352
1.7797771013
1.78726981182
1.95328952746
5.50605476411
130.258782192
1.78
2458.07590198
145.941152847
4.71649578147
1.88774671582
1.78327278985
1.77961454366
1.77951732536
1.77951541393
1.7795221856
1.77977710033
1.78726976546
1.95328907602
5.50605685423
130.258775847
1.78
1.78
698.325089866
10.507727183
2.07845975653
1.79089828761
1.7798518882
1.77952309714
1.7795155571
1.77952221561
1.77977707652
1.78726874385
1.95327679858
5.50599673916
130.258787735
130.258720559
130.258715042
130.258715078
130.258715046
130.258715017
130.258715019
130.258715017
130.258715051
130.258715049
130.258715049
130.258715
130.258714231
130.258664788
130.256571654
130.25025828
5.50604061667
5.50610158193
5.50610264987
5.50610204255
5.50610124662
5.50610048614
5.50609973658
5.50609895102
5.50609826656
5.5060981011
5.50611907897
5.50725674962
5.55895919005
7.69337339477
130.256571683
1.9532835013
1.95329575574
1.95329628673
1.9532962734
1.95329619664
1.95329620613
1.95329616664
1.95329612357
1.95329620509
1.95330140612
1.95350827198
1.95992391667
2.11103809312
5.55895895265
130.258664803
1.78726927668
1.78727029426
1.78727034335
1.78727034314
1.78727033704
1.78727033948
1.78727033681
1.78727033668
1.78727048229
1.78727717146
1.78752855954
1.79494349837
1.95992377695
5.50725703038
130.258714282
1.77977708898
1.77977711249
1.77977711351
1.77977711344
1.77977711315
1.77977711326
1.77977711315
1.77977711582
1.77977726565
1.779784071
1.78003885402
1.78752854603
1.95350811161
5.50611929685
130.258715101
1.77952223178
1.77952217292
1.77952216939
1.77952216923
1.7795221692
1.77952216921
1.77952216924
1.77952217205
1.77952232206
1.77952913275
1.77978407046
1.78727716107
1.95330128469
5.5060983637
130.258715116
1.77951733003
1.77951547686
1.77951536397
1.77951535852
1.7795153583
1.77951535829
1.77951535834
1.77951536115
1.77951551116
1.77952232203
1.77977726483
1.78727046718
1.95329603653
5.50609846304
130.258715122
1.77960806149
1.77952069166
1.7795154708
1.77951521851
1.77951520861
1.77951520829
1.77951520832
1.77951521113
1.77951536115
1.77952217202
1.77977711505
1.78727032218
1.95329595782
5.50609907666
130.258715151
1.78290245345
1.77971734072
1.77952514602
1.77951560162
1.77951521817
1.77951520581
1.77951520552
1.77951520832
1.77951535833
1.77952216921
1.77977711235
1.78727032149
1.95329598873
5.50609972593
130.258715148
1.86581123277
1.78493618198
1.77980202232
1.77952722962
1.77951560278
1.7795152159
1.77951520572
1.77951520829
1.77951535829
1.77952216917
1.77977711242
1.78727032381
1.9532960259
5.5061004384
130.258715145
3.35494261372
1.87537160094
1.78538868555
1.77978802476
1.77952478382
1.77951546993
1.77951521111
1.7795152084
1.77951535829
1.77952216918
1.77977711253
1.7872703258
1.95329605825
5.50610108569
130.258715143
22.1370908698
2.99472613435
1.86269487118
1.78391772885
1.77968224316
1.77952004337
1.77951531766
1.7795152101
1.77951535833
1.77952216919
1.77977711263
1.78727032773
1.95329609042
5.50610174681
130.258715106
1313.70458596
23.3520328342
2.6684954145
1.82555605012
1.78141071883
1.77957358876
1.77951662769
1.77951523624
1.77951535862
1.77952216926
1.77977711267
1.78727032719
1.95329609002
5.50610206781
130.25871514
1.78
507.224785227
6.805073702
2.04028520057
1.7919709043
1.77994786137
1.77952666258
1.77951545434
1.77951536379
1.77952217088
1.77977711162
1.78727027786
1.95329555437
5.5061008747
130.258715112
1.78
1.78
248.810054245
3.76338865096
1.85919011682
1.78241016073
1.77959533406
1.77951701277
1.77951542267
1.77952219931
1.7797770878
1.78726925851
1.95328328022
5.50603968365
130.258720648
130.258719834
130.258714182
130.258714184
130.258714195
130.258714351
130.258714361
130.258714365
130.258714361
130.258714379
130.258714398
130.258714281
130.25871348
130.258664041
130.256570907
130.250257568
5.50604185863
5.50610267727
5.50610376762
5.50610305493
5.50610227013
5.50610150094
5.50610070187
5.50609993121
5.50609929096
5.50609907449
5.50612004797
5.50725771651
5.55896016681
7.69337453239
130.256570939
1.95328369557
1.95329593023
1.95329646205
1.95329644447
1.95329637986
1.95329639145
1.95329633724
1.95329629477
1.95329638536
1.95330159305
1.9535084568
1.95992410799
2.11103851585
5.55896045584
130.258664097
1.78726929218
1.787270308
1.78727035715
1.78727035676
1.78727035303
1.78727035453
1.78727035034
1.78727035018
1.78727049663
1.78727718712
1.78752857538
1.79494353083
1.95992399799
5.50725796513
130.25871365
1.77977708878
1.77977711266
1.77977711371
1.77977711363
1.77977711349
1.77977711366
1.77977711333
1.779777116
1.77977726587
1.77978407149
1.7800388553
1.78752856509
1.95350831562
5.50612021076
130.258714448
1.77952219932
1.77952217043
1.77952216881
1.77952216872
1.77952216871
1.77952216872
1.77952216875
1.77952217156
1.77952232157
1.7795291323
1.779784071
1.78727717958
1.95330148913
5.50609928254
130.258714452
1.77951545123
1.77951536328
1.77951535807
1.7795153578
1.77951535778
1.77951535778
1.77951535781
1.77951536063
1.77951551064
1.77952232155
1.77977726536
1.78727048595
1.953296247
5.50609948088
130.258714469
1.77951840107
1.77951540867
1.77951521724
1.77951520817
1.77951520779
1.77951520777
1.77951520781
1.77951521063
1.77951536063
1.77952217154
1.77977711557
1.78727034066
1.95329616304
5.50610004362
130.258714314
1.77964213165
1.77952319173
1.77951560084
1.77951521998
1.77951520546
1.77951520498
1.779515205
1.77951520781
1.77951535782
1.77952216873
1.77977711288
1.78727034024
1.95329619646
5.50610073271
130.258714304
1.78328556787
1.77976040607
1.77952786149
1.77951571411
1.77951522065
1.77951520536
1.77951520497
1.77951520778
1.77951535778
1.77952216869
1.77977711295
1.78727034252
1.9532962339
5.50610145776
130.258714293
1.85537286756
1.78492147792
1.77981859751
1.77952808016
1.77951562753
1.77951521565
1.77951520522
1.77951520779
1.77951535779
1.7795221687
1.77977711306
1.7872703447
1.95329626911
5.50610219523
130.258714285
2.82202190965
1.8609817564
1.78469964855
1.77975274463
1.77952338276
1.77951542685
1.7795152096
1.77951520789
1.77951535779
1.77952216871
1.77977711317
1.78727034659
1.95329630088
5.50610284971
130.258714277
21.1874499979
2.75505721903
1.839872908
1.78251591308
1.77962529571
1.77951833995
1.77951527698
1.77951520926
1.7795153579
1.77952216878
1.77977711325
1.7872703469
1.95329631379
5.50610343068
130.258714273
426.518850217
9.15565231719
2.21832608114
1.80437493789
1.78053596905
1.77954647405
1.77951596667
1.77951522433
1.77951535981
1.77952217035
1.77977711219
1.78727029753
1.95329577746
5.50610221488
130.258714276
1.78
380.763218918
7.13432782811
1.98014900701
1.78754177898
1.77976408144
1.77952135074
1.7795153629
1.77951539134
1.77952219835
1.77977708839
1.78726927854
1.95328350787
5.50604116357
130.25871978
130.258731182
130.258725454
130.25872546
130.258725474
130.258725725
130.258725738
130.258725759
130.258725778
130.258725833
130.258725874
130.258725644
130.258724849
130.258675413
130.256582345
130.250269176
5.50603819203
5.50609421678
5.50609532754
5.50609482352
5.5060942012
5.50609797351
5.50609696597
5.50609241986
5.50609205576
5.50609614856
5.50611540339
5.50725048965
5.55895276493
7.69336376959
130.256582377
1.95328348853
1.95329512809
1.95329564075
1.9532956389
1.95329570306
1.95329620807
1.95329566791
1.9532955121
1.95329565208
1.95330144794
1.95350796124
1.95992332734
2.11103739031
5.55895519663
130.258675462
1.78726928112
1.78727025018
1.78727029749
1.78727029863
1.7872703086
1.78727034515
1.78727029777
1.78727029273
1.78727044356
1.78727718015
1.7875285375
1.79494342047
1.95992325668
5.50725205422
130.258725136
1.77977708905
1.77977711133
1.77977711242
1.77977711251
1.77977711306
1.77977711384
1.77977711221
1.7797771149
1.77977726478
1.77978407169
1.78003885178
1.78752850064
1.95350750904
5.50611301486
130.258725916
1.7795221998
1.77952217182
1.77952217028
1.77952217018
1.7795221702
1.77952217021
1.77952217021
1.77952217302
1.77952232303
1.77952913368
1.77978406953
1.78727711951
1.95330076186
5.50609591915
130.25872587
1.77951539091
1.77951536057
1.77951535941
1.77951535935
1.77951535937
1.77951535937
1.77951535939
1.77951536219
1.7795155122
1.779522323
1.77977726407
1.7872704306
1.95329567839
5.50609659613
130.258725857
1.77951530802
1.77951521408
1.77951520876
1.77951520934
1.77951520934
1.77951520932
1.7795152094
1.77951521221
1.77951536219
1.77952217298
1.77977711384
1.7872702774
1.95329533681
5.50609246949
130.25872561
1.77951824776
1.77951540536
1.77951521494
1.77951520604
1.77951520653
1.77951520652
1.77951520654
1.7795152094
1.77951535938
1.77952217017
1.77977711115
1.78727027678
1.95329536383
5.50609301507
130.258725594
1.77961852297
1.77952198358
1.77951554928
1.7795152181
1.77951520599
1.77951520648
1.77951520653
1.77951520936
1.77951535937
1.77952217014
1.77977711119
1.78727027853
1.95329539299
5.50609359474
130.258725579
1.78217402005
1.77969187439
1.77952443729
1.77951557491
1.77951521628
1.77951520599
1.77951520653
1.77951520932
1.77951535937
1.77952217014
1.77977711122
1.78727027932
1.95329540953
5.5060940587
130.258725566
1.8287796589
1.78289485209
1.77969955159
1.77952285592
1.77951545174
1.77951521132
1.77951520598
1.77951520934
1.77951535936
1.77952217012
1.7797771114
1.78727028384
1.95329551935
5.50609828982
130.258725549
2.49060919029
1.82513233899
1.78213277514
1.77962936592
1.77951904056
1.77951530755
1.77951520738
1.77951520942
1.77951535945
1.7795221702
1.77977711138
1.78727028113
1.95329544754
5.50609505792
130.258725544
7.65398410506
2.16094242979
1.80468324645
1.78073345384
1.77955880506
1.77951642617
1.77951523411
1.77951521049
1.7795153611
1.77952217178
1.77977711041
1.78727023451
1.9532949946
5.50609763246
130.25872554
30.2536655532
6.32774787173
1.99722039863
1.78973379918
1.77988213895
1.77952552004
1.77951547093
1.77951524377
1.7795153907
1.77952219976
1.77977708652
1.78726921244
1.95328263567
5.50603260828
130.258731043
130.25871943
130.258717675
130.258717683
130.258717696
130.25871397
130.25871399
130.258714026
130.258714065
130.258714079
130.258714118
130.258714143
130.258713345
130.258663906
130.256570775
130.250257437
5.50603791639
5.50609872733
5.50609965971
5.50609891973
5.50609829386
5.50609777686
5.50609684403
5.50609442248
5.50609684706
5.50609603604
5.50611535921
5.507253834
5.55895860753
7.69336796731
130.256570806
1.95328347715
1.95329552114
1.95329601838
1.9532957821
1.95329583422
1.95329620112
1.9532959541
1.95329562335
1.95329616988
1.953301447
1.95350800037
1.95992389491
2.11103832911
5.55895840066
130.258663959
1.78726928005
1.78727027752
1.7872703181
1.78727030399
1.78727031248
1.78727034436
1.78727032583
1.78727029902
1.7872704816
1.78727717992
1.78752855131
1.79494351762
1.95992390328
5.50725586148
130.25871338
1.77977708846
1.7797771118
1.77977711248
1.77977711222
1.77977711262
1.77977711315
1.77977711254
1.77977711466
1.77977726526
1.77978407111
1.78003885451
1.78752855547
1.95350816358
5.50611587338
130.258714165
1.77952219839
1.77952217137
1.77952216891
1.77952216961
1.77952216885
1.77952216882
1.77952216885
1.77952217156
1.77952232159
1.77952913228
1.77978406922
1.78727711986
1.95330076228
5.50609577835
130.258714166
1.77951538936
1.77951535959
1.77951535789
1.77951535793
1.77951535852
1.77951535867
1.77951535888
1.77951536074
1.77951551068
1.77952232153
1.77977726366
1.78727043068
1.95329567811
5.50609642686
130.258714124
1.77951524025
1.77951520962
1.77951520791
1.77951520787
1.77951520791
1.77951520861
1.77951520854
1.77951521077
1.77951536068
1.77952217155
1.77977711474
1.78727032669
1.9532958231
5.50609448571
130.258717854
1.77951528823
1.77951521022
1.77951520579
1.7795152059
1.77951520512
1.77951520505
1.77951520515
1.77951520858
1.7795153579
1.77952216875
1.77977711251
1.78727033061
1.95329603913
5.50609624442
130.258717835
1.77951725137
1.77951533701
1.77951521141
1.77951520536
1.77951520582
1.77951520507
1.77951520504
1.77951520848
1.77951535786
1.77952216872
1.77977711255
1.78727033198
1.95329595731
5.50609649658
130.258717818
1.77957797222
1.77951902481
1.77951539449
1.77951521204
1.77951520531
1.77951520586
1.77951520505
1.77951520786
1.77951535781
1.77952216872
1.77977711219
1.78727032947
1.95329586223
5.50609595352
130.258717809
1.7810348807
1.77960060802
1.77951940792
1.77951536921
1.77951520991
1.77951520567
1.77951520503
1.77951520781
1.77951535783
1.77952216876
1.77977711199
1.78727031277
1.95329572898
5.50609818376
130.258717791
1.80512794183
1.78087713747
1.77958295509
1.77951793636
1.77951529189
1.77951520731
1.77951520511
1.77951520788
1.77951535788
1.7795221688
1.77977711215
1.78727031799
1.95329580935
5.50609688105
130.258717784
1.96380825918
1.79221322159
1.78026055142
1.77954797408
1.7795163071
1.77951523567
1.77951520717
1.77951520954
1.77951535954
1.77952217034
1.77977711092
1.78727026166
1.95329527303
5.50609748414
130.258717787
2.13903588901
1.86034890833
1.78535460945
1.77978899629
1.77952462385
1.77951548842
1.77951524165
1.77951523972
1.77951538938
1.77952219832
1.77977708738
1.78726925336
1.95328311773
5.50603696756
130.25872328
130.258719203
130.258716004
130.258715576
130.258716082
130.258713742
130.258713769
130.258713778
130.258713806
130.25871383
130.25871386
130.25871384
130.258713041
130.258663603
130.256570471
130.25025713
5.50603090627
5.50609915783
5.50609980041
5.50609905956
5.50609858568
5.50609228476
5.50609397381
5.50609412183
5.50609712414
5.50609110088
5.50611445545
5.50725387282
5.55895872085
7.69336775299
130.256570504
1.95328275426
1.95329549874
1.95329600399
1.95329572625
1.95329569287
1.95329553345
1.95329593501
1.95329559829
1.95329618003
1.95330085454
1.95350804327
1.95992389603
2.11103833897
5.55895869764
130.258663658
1.78726922821
1.78727027567
1.78727031688
1.78727029905
1.78727029775
1.78727029308
1.78727032478
1.78727029744
1.78727048245
1.7872771353
1.7875285512
1.79494352022
1.95992392984
5.50725600915
130.258713117
1.77977708671
1.77977711166
1.77977711233
1.77977711169
1.77977711159
1.77977711151
1.77977711233
1.77977711431
1.77977726511
1.77978406981
1.78003885459
1.78752855825
1.95350817681
5.50611566634
130.258713915
1.77952219828
1.77952217134
1.77952216886
1.77952216952
1.77952216876
1.77952216872
1.77952216878
1.77952217149
1.77952232152
1.77952913219
1.77978406885
1.78727711568
1.95330064358
5.50609118334
130.258713915
1.77951538955
1.77951535971
1.77951535785
1.77951535789
1.77951535821
1.77951535848
1.77951535884
1.77951536069
1.77951551062
1.77952232145
1.77977726312
1.78727042093
1.95329538431
5.50609110504
130.258713908
1.77951523972
1.77951520981
1.77951520812
1.77951520784
1.77951520787
1.77951520839
1.77951520821
1.77951521072
1.77951536063
1.77952217149
1.77977711468
1.78727032807
1.95329581507
5.50609416495
130.258716426
1.77951523731
1.77951520743
1.77951520634
1.77951520622
1.77951520509
1.77951520502
1.77951520511
1.77951520831
1.77951535786
1.7795221687
1.77977711258
1.78727033238
1.95329604085
5.50609593992
130.258716387
1.77951526488
1.77951520842
1.77951520559
1.77951520589
1.77951520615
1.77951520504
1.779515205
1.7795152082
1.77951535782
1.77952216869
1.7797771126
1.7872703335
1.95329595268
5.5060961322
130.25871623
1.77951623036
1.7795152649
1.77951520757
1.77951520544
1.77951520577
1.77951520616
1.77951520502
1.77951520781
1.77951535777
1.77952216868
1.77977711208
1.78727033017
1.95329584737
5.50609545419
130.258716191
1.77954217519
1.77951663604
1.77951527205
1.77951520727
1.77951520555
1.77951520622
1.7795152052
1.77951520777
1.77951535778
1.77952216873
1.77977711191
1.78727031167
1.95329569596
5.50609623896
130.258716194
1.7800134875
1.77953999324
1.77951637696
1.77951525015
1.77951520635
1.77951520583
1.77951520532
1.77951520784
1.77951535783
1.77952216874
1.77977711201
1.78727031735
1.95329578675
5.50609654312
130.258716086
1.78334665474
1.779763705
1.77952896246
1.77951578905
1.77951522514
1.77951520726
1.77951520697
1.77951520973
1.7795153595
1.77952217029
1.77977711079
1.78727026018
1.95329526538
5.50609195435
130.258715668
1.78620316268
1.78085894321
1.779617588
1.7795200335
1.77951539821
1.77951524045
1.77951523681
1.77951523992
1.77951538939
1.77952219825
1.77977708723
1.78726925271
1.95328310198
5.5060373868
130.258721526
130.258730621
130.258716631
130.2587162
130.258715835
130.258725162
130.258725187
130.258725197
130.258725218
130.25872533
130.258725349
130.258725052
130.258724261
130.258674822
130.256581763
130.250268597
5.50603223951
5.50609861727
5.50609909879
5.50609832756
5.50609810919
5.50609468347
5.50609390369
5.50609149479
5.50609707349
5.50609302957
5.50611444307
5.50725278761
5.55895844601
7.69336327064
130.256581794
1.95328279362
1.95329526594
1.95329579699
1.95329580644
1.95329580548
1.95329578691
1.95329577586
1.95329598408
1.95329613126
1.9533010464
1.9535080246
1.95992376496
2.11103819699
5.55895814777
130.258674879
1.78726922909
1.78727025693
1.7872703015
1.78727030856
1.78727030829
1.78727031099
1.78727031069
1.78727033719
1.78727047845
1.78727714803
1.78752853952
1.79494345578
1.95992377686
5.50725600101
130.258724617
1.77977708711
1.77977711154
1.77977711221
1.7797771124
1.77977711238
1.77977711259
1.77977711252
1.77977711564
1.77977726559
1.77978407058
1.7800388518
1.78752850263
1.95350751873
5.5061123961
130.258725422
1.77952219907
1.77952217052
1.7795221694
1.77952216885
1.77952217
1.77952217001
1.77952216957
1.77952217264
1.77952232255
1.77952913356
1.77978407069
1.78727716789
1.95330132552
5.50609596544
130.258725312
1.77951538967
1.77951536057
1.77951535936
1.77951535921
1.77951535802
1.77951535805
1.77951535791
1.77951536201
1.77951551178
1.77952232237
1.77977726479
1.78727047308
1.95329605776
5.50609569444
130.258725309
1.77951523983
1.77951521035
1.77951520912
1.77951520925
1.77951520919
1.77951520793
1.77951520809
1.77951521197
1.77951536205
1.7795221723
1.77977711326
1.78727027584
1.95329529983
5.50609143149
130.258715965
1.77951523693
1.77951520675
1.77951520512
1.77951520514
1.77951520637
1.77951520642
1.77951520637
1.77951520805
1.77951535926
1.77952216982
1.77977711088
1.7872702785
1.95329540652
5.50609356084
130.258715926
1.77951523683
1.77951520671
1.77951520502
1.77951520558
1.77951520511
1.77951520633
1.77951520614
1.77951520813
1.77951535928
1.77952217003
1.77977711089
1.78727027999
1.95329542245
5.50609363642
130.258715975
1.7795152475
1.77951520714
1.77951520502
1.77951520498
1.77951520554
1.77951520509
1.77951520643
1.77951520925
1.77951535935
1.77952217004
1.7797771105
1.78727027419
1.95329533134
5.50609259448
130.258715935
1.77951556251
1.7795152236
1.7795152056
1.779515205
1.77951520496
1.779515205
1.77951520629
1.7795152093
1.77951535932
1.77952217007
1.77977711094
1.78727027752
1.95329543607
5.5060959456
130.258715919
1.77952149131
1.77951552402
1.77951521944
1.77951520546
1.77951520505
1.77951520504
1.77951520583
1.77951520934
1.77951535934
1.77952217005
1.77977711058
1.78727027366
1.95329534717
5.50609457206
130.258716713
1.77956727912
1.77951855499
1.77951538928
1.77951521373
1.77951520687
1.77951520672
1.77951520703
1.77951520994
1.77951536098
1.77952217163
1.77977710981
1.78727023262
1.95329513932
5.5060930168
130.258716286
1.77960515564
1.77953225967
1.77951656125
1.77951529827
1.77951523826
1.77951523682
1.77951523697
1.77951523992
1.77951539012
1.77952219906
1.77977708591
1.78726921285
1.95328270986
5.50603683725
130.258722154
130.258719208
130.258717368
130.258717021
130.258716562
130.258713738
130.258713756
130.258713803
130.258713815
130.258713806
130.258713825
130.258713794
130.258713001
130.258663558
130.256570442
130.250257169
5.50603172194
5.50609807554
5.50609803113
5.50609726753
5.5060970875
5.50609428872
5.50609101842
5.50609478648
5.50609677266
5.50609284135
5.50611410445
5.5072525698
5.55895828234
7.69337163252
130.256570457
1.95328275802
1.9532956304
1.95329581485
1.95329578604
1.95329578514
1.95329577755
1.95329598802
1.95329615015
1.95329602998
1.95330103889
1.95350787769
1.95992374878
2.11103796848
5.55895727943
130.258663616
1.7872692241
1.78727028822
1.78727032088
1.78727030785
1.78727030731
1.78727031045
1.78727032628
1.78727034289
1.7872704678
1.78727714766
1.78752855422
1.79494348768
1.95992382333
5.50725589377
130.25871309
1.77977708689
1.7797771118
1.77977711278
1.77977711201
1.77977711192
1.77977711221
1.77977711264
1.77977711564
1.77977726472
1.77978407037
1.78003885425
1.78752855418
1.95350816212
5.50611596353
130.258713885
1.77952219908
1.77952217048
1.77952216941
1.77952216882
1.7795221694
1.77952216996
1.77952216954
1.77952217166
1.7795223216
1.77952913236
1.7797840706
1.7872771736
1.95330137454
5.50609598526
130.258713915
1.77951538987
1.77951536063
1.77951535934
1.77951535918
1.77951535815
1.77951535814
1.77951535788
1.77951536146
1.7795155108
1.77952232162
1.77977726504
1.78727047876
1.95329610673
5.50609576688
130.258713881
1.7795152399
1.77951521017
1.77951520833
1.77951520795
1.77951520913
1.77951520802
1.77951520825
1.77951521197
1.77951536198
1.77952217167
1.77977711489
1.78727032755
1.95329595906
5.50609471202
130.258716602
1.77951523706
1.77951520689
1.77951520502
1.779515205
1.77951520571
1.77951520545
1.77951520635
1.77951520814
1.77951535818
1.77952216877
1.77977711214
1.78727032418
1.95329596365
5.50609599896
130.258716579
1.77951523689
1.77951520697
1.77951520524
1.77951520559
1.77951520502
1.7795152057
1.77951520614
1.77951520822
1.77951535921
1.77952216882
1.77977711203
1.78727032325
1.95329594978
5.5060956778
130.258716688
1.77951523684
1.77951520696
1.77951520528
1.7795152052
1.77951520557
1.77951520503
1.77951520641
1.77951520922
1.77951535897
1.77952216882
1.77977711199
1.78727032358
1.95329595102
5.50609576614
130.258716661
1.77951523944
1.77951520701
1.77951520532
1.77951520525
1.77951520516
1.77951520492
1.7795152053
1.77951520801
1.77951535922
1.77952216882
1.77977711218
1.78727031914
1.95329582892
5.50609180525
130.258716462
1.77951529514
1.7795152097
1.77951520541
1.77951520537
1.77951520531
1.77951520516
1.77951520577
1.7795152093
1.77951535933
1.77952216893
1.77977711201
1.78727032115
1.95329588152
5.50609453549
130.258717463
1.77951576263
1.77951524239
1.77951520861
1.77951520693
1.77951520699
1.77951520698
1.77951520715
1.7795152101
1.77951536097
1.77952217041
1.77977711055
1.78727025801
1.95329512141
5.50609261423
130.258717112
1.77951619199
1.77951541037
1.77951524982
1.77951523736
1.77951523685
1.779515237
1.77951523746
1.77951524003
1.77951539014
1.77952219839
1.77977708721
1.78726925397
1.95328310828
5.50603627395
130.258722929
130.258719053
130.258720444
130.258720118
130.258723326
130.258713581
130.258713595
130.258713603
130.258713622
130.258713602
130.258713629
130.258713581
130.258712784
130.25866334
130.256570212
130.250256928
5.50602912722
5.50609764094
5.50609377577
5.50609206801
5.50609185948
5.50609082462
5.50609382423
5.50609473055
5.50609617205
5.50609031951
5.50611340379
5.50724972462
5.55895755463
7.69337168794
130.256570238
1.95328312801
1.95329563247
1.95329560578
1.95329547008
1.95329544877
1.95329546382
1.95329604152
1.95329583166
1.95329621079
1.95330082304
1.9535081598
1.95992333941
2.11103824376
5.55895722436
130.258663398
1.78726926226
1.78727028891
1.78727032405
1.78727028729
1.78727028557
1.78727028839
1.78727032712
1.78727031746
1.78727048106
1.78727713248
1.78752855998
1.79494349094
1.95992382297
5.50725545392
130.25871288
1.77977708808
1.7797771118
1.7797771129
1.77977711129
1.77977711115
1.77977711134
1.77977711234
1.77977711488
1.77977726536
1.77978406973
1.78003885432
1.78752855548
1.9535081688
5.50611591049
130.258713679
1.77952219972
1.77952217179
1.77952217026
1.77952217007
1.77952216941
1.77952217
1.77952216964
1.77952217161
1.77952232159
1.77952913223
1.77978406877
1.78727711864
1.95330072303
5.50609458197
130.258713721
1.77951539067
1.77951536098
1.77951535937
1.7795153593
1.77951535921
1.77951535929
1.77951535931
1.77951536148
1.77951551077
1.77952232157
1.77977726374
1.78727044794
1.9532957932
5.50609512472
130.258713711
1.77951524054
1.77951521023
1.77951520834
1.77951520795
1.77951520926
1.77951520921
1.77951520924
1.77951521218
1.779515362
1.77952217164
1.77977711477
1.78727032945
1.95329597077
5.50609466188
130.258723047
1.77951523737
1.77951520806
1.77951520653
1.77951520641
1.77951520575
1.77951520546
1.77951520649
1.77951520925
1.77951535817
1.77952216874
1.77977711229
1.78727032834
1.95329599559
5.50609602886
130.258723532
1.77951523742
1.77951520774
1.77951520633
1.77951520636
1.77951520639
1.77951520574
1.77951520652
1.77951520921
1.77951535927
1.7795221688
1.77977711215
1.78727032621
1.95329596783
5.50609571994
130.25872344
1.77951523765
1.77951520761
1.77951520602
1.77951520623
1.77951520626
1.77951520644
1.77951520649
1.77951520927
1.77951535895
1.7795221688
1.77977711216
1.78727032686
1.95329597512
5.50609574179
130.258723375
1.77951523733
1.7795152078
1.77951520598
1.77951520598
1.77951520628
1.77951520642
1.77951520531
1.77951520796
1.77951535923
1.7795221688
1.77977711242
1.78727032475
1.9532958974
5.50609276884
130.258720502
1.77951523717
1.77951520747
1.77951520623
1.77951520595
1.77951520611
1.77951520642
1.77951520586
1.77951520932
1.77951535939
1.77952216888
1.77977711191
1.78727032384
1.9532958867
5.50609396819
130.258720539
1.77951524216
1.77951520887
1.77951520765
1.77951520778
1.77951520755
1.77951520784
1.77951520774
1.77951521089
1.77951536104
1.77952217037
1.77977711089
1.78727026543
1.95329486897
5.50609034449
130.25872021
1.77951527556
1.77951523943
1.77951523708
1.77951523785
1.77951523762
1.77951523747
1.77951523689
1.77951524047
1.77951539084
1.77952219834
1.77977708726
1.78726925623
1.95328311412
5.50603590571
130.258726006
130.258719146
130.258720733
130.258720781
130.258723718
130.258713673
130.258713681
130.258713726
130.258713742
130.258713664
130.258713729
130.25871371
130.258712913
130.258663469
130.25657036
130.250257113
5.50602992489
5.50609603082
5.50609351466
5.50609372096
5.50609492063
5.50609509705
5.50609364554
5.50609156793
5.50609615065
5.50609469757
5.506115747
5.50725135609
5.55895756652
7.69336334942
130.25657037
1.95328321647
1.9532954165
1.95329569882
1.95329570997
1.95329558051
1.95329596791
1.95329594415
1.95329582251
1.95329621253
1.9533009717
1.95350826168
1.95992340062
2.11103820484
5.55895637937
130.258663521
1.7872692653
1.78727026516
1.78727032277
1.78727030522
1.78727029153
1.78727033208
1.78727032382
1.7872703167
1.78727048227
1.78727713775
1.78752855604
1.79494347807
1.95992374244
5.50725479944
130.258712965
1.77977708774
1.77977711168
1.77977711239
1.7797771122
1.77977711176
1.77977711294
1.77977711243
1.77977711487
1.77977726551
1.77978406976
1.78003885231
1.7875285114
1.95350764749