/*--------------------------------*- C++ -*----------------------------------*\
| =========                 |                                                 |
| \\      /  F ield         | OpenFOAM: The Open Source CFD Toolbox           |
|  \\    /   O peration     | Version:  2406                                  |
|   \\  /    A nd           | Website:  www.openfoam.com                      |
|    \\/     M anipulation  |                                                 |
\*---------------------------------------------------------------------------*/
FoamFile
{
    version     2.0;
    format      ascii;
    arch        "LSB;label=32;scalar=64";
    class       volScalarField;
    location    "0.01";
    object      p;
}
// * * * * * * * * * * * * * * * * * * * * * * * * * * * * * * * * * * * * * //

dimensions      [0 2 -2 0 0 0 0];

internalField   nonuniform List<scalar> 
29768
(
0.0709131688546
0.0709703771124
0.0710196869179
0.0711070108864
0.0711784724733
0.071280565321
0.0713593924965
0.0714596549173
0.0715328718601
0.0716174622592
0.0716752992911
0.0717345564807
0.0717704339917
0.0717993440718
0.0718104819338
0.0709278160542
0.0709694878972
0.0710311605743
0.0711060544619
0.0711861512561
0.0712799927891
0.0713640589239
0.0714596026808
0.0715356163992
0.0716177827984
0.0716768876244
0.0717349031958
0.0717713518618
0.0717968935912
0.0718032049094
0.0708077087574
0.0709095765499
0.0709335025641
0.071061313584
0.0711165273423
0.0712491858158
0.0713191215463
0.0714397091224
0.0715088699093
0.0716056181196
0.0716622161307
0.0717274545461
0.0717616298258
0.0717750416806
0.0717783948808
0.0708462969856
0.0707954005603
0.0709515790619
0.0709678592231
0.0711164251942
0.0711828092373
0.0713087136623
0.0713959475444
0.0714946707079
0.0715769701597
0.0716473806467
0.0717073275454
0.0717456059079
0.0717540425471
0.071757762464
0.0702337907802
0.0705212349493
0.0704603289338
0.0707584934806
0.0707695354263
0.0710289148115
0.0710825257069
0.0712864689966
0.0713537816882
0.0715007666227
0.0715614237912
0.0716531561418
0.0716920881977
0.0717072347049
0.0717105364424
0.0705519607049
0.0702556241662
0.0706642367677
0.0705449586761
0.070869187221
0.0708873939363
0.0711159816175
0.0711997886778
0.0713533203058
0.0714470912165
0.0715453543917
0.0716167618812
0.0716667915207
0.0716752058021
0.0716794609637
0.0690771030672
0.0698657681753
0.0695665095046
0.0702765705046
0.0701629908568
0.0706875885656
0.0706954171131
0.071052485771
0.0711115409202
0.0713421375766
0.0714081017769
0.0715418624473
0.0715887678568
0.0716115570129
0.0716149664587
0.0702713010727
0.0691860054911
0.0703057828386
0.0697774236394
0.0705289898568
0.0704045316918
0.0708440068864
0.0709051335222
0.0711555393572
0.0712636290911
0.0714060271761
0.0714950242462
0.071563310436
0.0715737672617
0.0715790263453
0.0665609164866
0.0689862094851
0.0678489536647
0.069696850743
0.0691624170781
0.0702805510112
0.0701367494776
0.0707761084262
0.0707962308699
0.0711584143859
0.0712229989884
0.0714160792062
0.071471077491
0.0715045597934
0.0715077303225
0.0703289654114
0.0667658488341
0.0701588356061
0.068370943607
0.0701970861667
0.0696803000661
0.0705327877886
0.0705238607407
0.0709267136026
0.0710490059615
0.0712504132549
0.0713626396885
0.0714538119188
0.0714679262768
0.0714740843402
0.0602721875951
0.068281283128
0.0642374996042
0.0694093410064
0.0675212653534
0.0699501371422
0.0693948772616
0.0705219354081
0.070440185008
0.0709877193449
0.0710369180305
0.071302079749
0.071362603048
0.0714082422547
0.0714104120879
0.0685822023079
0.0604165569209
0.0708576322314
0.0657101638157
0.070110115536
0.0687109586259
0.0702342245215
0.0701148670381
0.0706962840964
0.0708468440793
0.0711034174962
0.0712481022271
0.07135992911
0.0713801314513
0.0713864589365
0.0507417536515
0.0688479686799
0.0568759656229
0.0703797239011
0.0650345673568
0.0699372225573
0.0685761118603
0.0703715769517
0.070132008549
0.0708737883431
0.070900159385
0.0712276873039
0.0712910969095
0.0713458231392
0.0713465485966
0
0.0493819250042
0.0714173116392
0.0614364581243
0.0702618093782
0.067936811779
0.0698631791939
0.0698638899941
0.0704682632893
0.0707311832282
0.0709880101976
0.0711851341749
0.0713025450581
0.0713325548466
0.0713378470978
0
0
0.0506452796676
0.0703980618462
0.0626143421514
0.0700009721015
0.0682134150417
0.0703139646949
0.070062895394
0.0708402597524
0.0708802802278
0.0712125955361
0.0712817033947
0.0713350585271
0.0713350512805
0.069544345592
0.0696092216139
0.0696483561553
0.0697466971446
0.0698025563024
0.0699182429458
0.0699795342147
0.0700939266177
0.0701516294695
0.0702487625956
0.0702957122508
0.0703642200577
0.0703946109033
0.0704282471542
0.0704378869509
0.069606478417
0.0696385892278
0.0696976970189
0.0697690181069
0.0698363249598
0.0699334948136
0.0700001356414
0.0701034681578
0.0701631191521
0.0702543145745
0.0703017642535
0.0703673933618
0.0703982979157
0.0704283958087
0.0704341344416
0.06936826147
0.0695073179058
0.0695054377528
0.0696731442626
0.069699968392
0.0698688982303
0.0699120402517
0.0700618762119
0.0701098144306
0.070227919524
0.0702710464396
0.0703500296462
0.0703792086323
0.0703988695624
0.0704012590824
0.0697312536737
0.0695704862789
0.0697718356127
0.0697132934553
0.0698617077424
0.0698924094842
0.0699954468059
0.0700731938633
0.0701454556074
0.0702304513623
0.0702812916365
0.070347033845
0.0703768159707
0.0703902662453
0.0703931506314
0.0686389023956
0.0690605872774
0.068914051737
0.0693467200973
0.0692733688163
0.0696419392668
0.0696256045581
0.069906584159
0.0699245881039
0.070120565629
0.0701526562707
0.070271959998
0.0703013010852
0.0703274761613
0.0703291565973
0.0698893642239
0.0692261084821
0.06980002406
0.0694405775164
0.0697950530658
0.069699256124
0.0698930589846
0.0699393692718
0.0700448791037
0.0701345019899
0.0701962761016
0.0702726945968
0.0703054807235
0.0703190230386
0.0703210835557
0.0672195294412
0.0683838706417
0.0678410136801
0.0689013880914
0.0685591938466
0.069343643058
0.0691793727981
0.0697032256263
0.0696516193213
0.069978844158
0.0699844074472
0.0701674459933
0.0701928526991
0.0702326393293
0.0702324169223
0.0706017414453
0.0684633047362
0.0700595199547
0.0689001640323
0.069762661248
0.0693675796984
0.0697561634726
0.0697354956772
0.069901873871
0.0700002022037
0.0700783532993
0.0701742869802
0.0702111333951
0.0702275972655
0.0702283301901
0.0642503908843
0.0676644690604
0.0658552861629
0.0685397523489
0.067411275754
0.0690940205853
0.0685486781225
0.0695175372307
0.0693043512721
0.0698412443324
0.069787058428
0.0700617880464
0.0700737869596
0.0701322051082
0.0701284518873
0.0731302869958
0.0664864691575
0.071045541813
0.0677985917557
0.0698867772233
0.0688421457558
0.0696092040868
0.0694703600132
0.0697280337543
0.0698463878166
0.0699410009551
0.0700695235969
0.0701092669963
0.0701323688106
0.0701308362805
0.057606067526
0.0682019936789
0.0620795135993
0.0689522118361
0.0656474735201
0.0691480827043
0.067746760117
0.0694480117791
0.0689254702236
0.0697539617039
0.069595348912
0.069982399044
0.0699685935312
0.0700481337246
0.0700391305501
0.0758467148215
0.0603571321587
0.0736057232663
0.0655467213939
0.0702117180381
0.0681117578822
0.0694099003291
0.0691917923317
0.0695146519981
0.0697075955102
0.0697951428025
0.0699814177544
0.0700169527782
0.0700528705939
0.0700478228017
0.0499122769188
0.0746582421509
0.0554233094959
0.0716948882189
0.0633494383847
0.0697909080912
0.0669693814591
0.0695626178588
0.0686335172678
0.0697476587764
0.0694690587963
0.0699505171859
0.0699062832403
0.0700012965061
0.0699867937244
0
0.0484658347627
0.0768532649688
0.0625427072648
0.0700473769048
0.0676771594986
0.0688821522037
0.0690787479912
0.069214774741
0.0696451460691
0.0696509204655
0.0699364555788
0.0699519294319
0.0700083436401
0.0699989295582
0
0
0.0498670651462
0.0735571787832
0.0621176385084
0.0702812531321
0.0668923924056
0.0696795809417
0.0686602913093
0.0697892942884
0.0694863621327
0.0699678062204
0.0699125835411
0.0700049441268
0.0699878493984
0.0672441635536
0.0673008236112
0.0673385255313
0.0674213048122
0.0674773562532
0.0675726791728
0.0676353131762
0.067728453041
0.0677872048494
0.0678656684915
0.0679124715748
0.0679673453379
0.0679966224468
0.0680232406401
0.0680323265322
0.0672515197922
0.0673008667854
0.0673452575378
0.0674218793782
0.0674828060436
0.067573660371
0.0676393430366
0.067729601244
0.0677899814485
0.0678667195818
0.0679143121128
0.0679681714849
0.067998014813
0.0680215966007
0.0680266540936
0.0671824181621
0.0672614285303
0.0672854005534
0.0673903725487
0.0674366498351
0.0675505132024
0.0676072080806
0.0677137659522
0.0677696011456
0.0678566098685
0.0679025901061
0.0679617359653
0.0679899036073
0.068002159859
0.0680045535486
0.0671452795977
0.0671667485197
0.0672561481084
0.0673180464115
0.0674145078631
0.0675004171424
0.0675896015335
0.0676807745076
0.0677549061504
0.0678348152314
0.0678899697371
0.0679464821761
0.0679776971137
0.0679861130145
0.0679888410059
0.0668015290458
0.0669631423805
0.0669535005803
0.0671492001587
0.0671781109781
0.0673707014115
0.0674217998079
0.0675864393916
0.0676433898128
0.0677682260075
0.0678184859473
0.067898652834
0.0679313150902
0.0679444863571
0.0679468025815
0.0667588159491
0.066757252663
0.0669406715033
0.0670022277219
0.0671769264627
0.0672751705519
0.0674179907648
0.0675269234504
0.0676335887232
0.0677304440017
0.0678039570443
0.0678725108362
0.0679122712319
0.0679207904601
0.0679235786339
0.0661995905443
0.0664719762047
0.0664243880225
0.0667646181442
0.0667726224803
0.0670922294425
0.0671380268041
0.0673937393968
0.0674543660945
0.0676366973978
0.0676941996779
0.0678058825369
0.0678457756211
0.06786435943
0.0678665098442
0.065977229809
0.0660643337093
0.0663891619806
0.0665063169731
0.0668074297879
0.066940418463
0.0671683777446
0.0673082828683
0.0674639189412
0.0675875317837
0.0676873803818
0.0677746575414
0.0678267278439
0.0678372032193
0.0678401393145
0.0654804993113
0.0657440890601
0.0657229915307
0.0662345650876
0.0662378069787
0.0667359584609
0.0667790169245
0.067160981061
0.0672262164457
0.0674846802687
0.0675504964648
0.0677024354608
0.0677506644871
0.0677760552024
0.0677777174099
0.0641181111823
0.0650954113979
0.0654241856656
0.0658721575987
0.0662969490253
0.0665296616164
0.0668622753861
0.0670526064221
0.0672677589396
0.0674283751418
0.0675588228872
0.067670816769
0.0677372707207
0.0677508612765
0.0677536729679
0.065354415633
0.0644665362237
0.0650689615174
0.0654654743651
0.0656669512895
0.0663100290787
0.066404415752
0.0669179684012
0.0670005098611
0.0673392307646
0.0674159507703
0.0676093425208
0.0676663053306
0.0676980555223
0.0676988272863
0.058431511831
0.0649340788359
0.0636824489934
0.0654702143203
0.0656702306414
0.0661662716271
0.0665434823285
0.0668183179876
0.0670774953414
0.0672874049301
0.0674419012499
0.0675834950055
0.0676624666513
0.0676802651478
0.067682491869
0.0671224039775
0.0604001640258
0.0652887383216
0.0640054880293
0.0653626923304
0.0657947375855
0.0661527401281
0.0667047396978
0.0668490064956
0.0672336210723
0.0673292316732
0.0675492644396
0.0676145639618
0.0676494504984
0.0676491293629
0.0465590453749
0.071760659823
0.0611954437854
0.0662725466234
0.0651520832982
0.0660095259668
0.0662888155675
0.0666749517517
0.0669320745145
0.0672036610236
0.0673621491814
0.0675355003094
0.0676199857764
0.0676431233975
0.0676443402287
0
0.0470413458467
0.0672159381852
0.0610347547396
0.06589244281
0.0653029536252
0.0662195663972
0.0666032434991
0.0668542307409
0.067207405721
0.06732717133
0.0675416155629
0.0676123579859
0.0676445467287
0.067643452608
0.0659106782843
0.065973399673
0.065996066629
0.0660834741179
0.066120464208
0.0662198331267
0.0662626799643
0.0663595361113
0.0664010745382
0.0664827707454
0.0665171659774
0.0665745397148
0.0665970429216
0.0666250236403
0.066632129211
0.0659545044647
0.0659994955019
0.0660316451872
0.0661037370257
0.0661456242521
0.0662340151847
0.0662787614158
0.0663687189057
0.0664106376847
0.0664883702778
0.0665226680189
0.0665780071661
0.0666008469122
0.0666259721573
0.0666299505645
0.0657964804054
0.0659034605701
0.0659021141665
0.066031724665
0.066051713503
0.0661846220911
0.0662166073717
0.0663365720303
0.0663721689922
0.0664679414696
0.0665001269314
0.0665645600355
0.0665863906882
0.0666021163495
0.0666033790931
0.0660173585233
0.0659838502827
0.0660691654841
0.0660883545428
0.0661574820135
0.0662196208104
0.0662739904816
0.0663552306909
0.0663984731956
0.0664755816203
0.0665091740703
0.0665657742839
0.066586710574
0.0665980258084
0.0665995803825
0.0653188498269
0.0655898331909
0.0655066223453
0.0657946923094
0.0657583075266
0.0660165955436
0.0660139415366
0.0662202861378
0.0662377609337
0.066386831206
0.0664123602279
0.0665051301945
0.066527438409
0.0665472104446
0.0665479360488
0.0660314309826
0.0658251003781
0.066029850935
0.0659513635784
0.0660818839689
0.0661108290642
0.0661887657242
0.0662716207748
0.0663211079994
0.0664107627824
0.0664454001538
0.0665127597168
0.0665336691718
0.0665452128572
0.0665457892528
0.064467676011
0.0651091899646
0.0648388541539
0.0654593797104
0.0652932807739
0.0657901800803
0.0657102194501
0.0660667162329
0.0660447762427
0.0662800311931
0.0662897288626
0.0664261488499
0.0664462429426
0.0664752586602
0.0664744699783
0.0662145043452
0.0655740799445
0.0660381507597
0.0657387462535
0.0659856605204
0.0659502519083
0.0660645532694
0.0661540690935
0.0662091613058
0.0663232091906
0.0663565730024
0.0664434001151
0.0664633083549
0.0664775804662
0.0664765898094
0.062920462034
0.0644849762211
0.0637451322528
0.0651004681439
0.0646141146916
0.0655673765279
0.0653103133198
0.065917890533
0.0658111517964
0.0661752205986
0.0661506152294
0.066346987833
0.0663589535558
0.0664001738964
0.0663967077032
0.0669161128745
0.0652376272467
0.0662128159431
0.0654638141798
0.0658917513593
0.0657588947119
0.0659070859552
0.0660228681957
0.0660710616334
0.0662297067547
0.0662538424318
0.0663716032695
0.0663879815832
0.0664077547096
0.0664043857796
0.0599772808818
0.0639368821186
0.0620025815462
0.0649416044609
0.0637100495276
0.0654680220045
0.0648544189594
0.0658334224271
0.0655753045754
0.0661048874936
0.0660224868028
0.0662881929317
0.0662845542575
0.0663388096367
0.0663315606158
0.0686300475526
0.0648649789402
0.0665671420624
0.0651914636044
0.0657369955425
0.0655882784654
0.0656889787217
0.0659110089624
0.0659079403548
0.0661517939266
0.0661486158952
0.0663131141367
0.066321384441
0.066350408555
0.0663439096943
0.0545179130147
0.064434810208
0.0595551362417
0.0654438849853
0.0627760681682
0.0656416116031
0.0644863042394
0.0658663615686
0.0654162030117
0.0660950937568
0.0659458027899
0.0662667039156
0.0662438204914
0.0663070403772
0.066295777573
0.070017962102
0.0648580722176
0.0663743603893
0.0652069732655
0.065154692897
0.0655588932821
0.0653218796728
0.0658669982265
0.0657184234795
0.0661127516539
0.0660555959236
0.0662826574077
0.0662777327498
0.0663195012838
0.0663098260644
0.0468626581839
0.0686326167868
0.0576055512373
0.0669512873831
0.0625942806698
0.0660325417542
0.0645209042426
0.0659869350664
0.0654488948512
0.0661408996343
0.0659635321728
0.0662869362369
0.0662529453399
0.0663144981788
0.0663009372767
0.0638556678145
0.0639057209894
0.0639284974168
0.0639969222181
0.0640337366716
0.0641108959897
0.064153710249
0.0642287006238
0.0642699410022
0.0643331333264
0.064366616876
0.064410854543
0.0644320783538
0.0644534975716
0.0644600696125
0.0638595420836
0.0639071841594
0.0639324885745
0.0639987661101
0.0640374331752
0.0641128012897
0.0641567699692
0.0642304243421
0.0642722953939
0.0643345917494
0.064368406803
0.0644120098568
0.0644336648982
0.0644526753216
0.0644560726725
0.0638289089714
0.0638879778614
0.0639048339319
0.0639826549522
0.0640148640652
0.0641004129425
0.0641401841427
0.0642216482458
0.0642612749896
0.0643287459231
0.064361786217
0.0644080495001
0.0644284572547
0.0644379958808
0.0644393268375
0.0637886159049
0.0638345700895
0.0638727147031
0.0639415255433
0.0639916173692
0.0640713111924
0.0641236020915
0.0642018522702
0.0642490839757
0.0643151805772
0.0643523854019
0.064398179476
0.0644200716328
0.0644268977286
0.0644284389969
0.0636176138303
0.0637124762413
0.063715420796
0.0638353232837
0.063860771531
0.0639860734884
0.0640242771363
0.0641375089483
0.0641786843088
0.0642681967392
0.0643043907846
0.0643632723886
0.0643866869336
0.0643956865414
0.0643969479454
0.06354458746
0.0636056167129
0.0636670865386
0.0637583005416
0.0638328019282
0.0639345995863
0.0640066132132
0.064103903982
0.0641649454852
0.0642455909376
0.0642917253062
0.0643466594101
0.0643731701672
0.0643797028055
0.0643810714779
0.063310729778
0.0634406729264
0.0634368783611
0.0636098572188
0.063633651762
0.0638139155394
0.0638543894602
0.0640126311251
0.0640583218477
0.0641792685462
0.0642208304228
0.0642981001899
0.0643262961705
0.0643378120145
0.0643388541892
0.0631251300949
0.0632578668446
0.0633400507144
0.0634932621161
0.0635975382014
0.0637433188166
0.0638413705023
0.0639702453075
0.0640496817269
0.0641526584781
0.0642106086006
0.0642794538122
0.0643123467923
0.0643199384097
0.0643211044883
0.0629822967244
0.0630902648325
0.0631152672526
0.0633264628907
0.0633669258383
0.0636063798519
0.063657003084
0.0638678881514
0.063921324287
0.0640794708306
0.0641278520235
0.0642269130998
0.0642606425567
0.0642751478464
0.0642757561772
0.0624190990633
0.0628236098932
0.0628694227381
0.0631838234257
0.0632997306805
0.0635271115233
0.0636479888261
0.0638230520453
0.0639211138112
0.0640532343947
0.0641236156846
0.0642098857774
0.064249873458
0.0642591800179
0.0642599389512
0.0628477608435
0.0626605768506
0.0628583203692
0.0629983955096
0.0631237716361
0.0633880880911
0.0634741407728
0.0637276393138
0.0637966008246
0.0639885001833
0.0640455357334
0.0641649782893
0.0642043503589
0.0642212477083
0.0642211502309
0.0612666811027
0.0624940804467
0.0622798599483
0.0629349603295
0.0629886067716
0.0633408970895
0.0634633466411
0.0636953712245
0.0638045067467
0.0639690822215
0.0640485894572
0.0641533587205
0.06419941352
0.0642108174177
0.0642108989381
0.063200118475
0.0620677080649
0.0628441833186
0.0626313633569
0.0630005477048
0.0631942566354
0.0633661900031
0.0636236384581
0.0637212191639
0.0639288674767
0.0639965520601
0.0641278052296
0.0641718989279
0.0641893950566
0.0641884971787
0.0600601081512
0.0628258035623
0.0618775970757
0.0628854280735
0.0627952805936
0.0632368394423
0.0633442222133
0.0636192291978
0.0637298595643
0.0639216303924
0.0640039408163
0.0641241900867
0.0641734681275
0.0641870118497
0.0641863577663
0.0629090129534
0.0613971186077
0.0631399169243
0.062371241507
0.0630739043826
0.0631154343162
0.0633826657808
0.0636006909781
0.0637255755287
0.0639227854492
0.0639982131778
0.064127468757
0.0641733157373
0.0641890764104
0.064187579426
0.0625163050898
0.0625715980937
0.0625797930933
0.062650395096
0.0626702789626
0.0627475876727
0.0627735981613
0.0628477713274
0.0628746047095
0.0629368065319
0.0629598426498
0.063003452362
0.0630188480546
0.0630400983103
0.0630449541274
0.0625401028814
0.0625883715185
0.0625996513487
0.0626638504494
0.0626849396531
0.0627573362825
0.0627834598121
0.0628543106955
0.0628808457396
0.0629409961214
0.0629637617645
0.0630062286225
0.0630218841332
0.0630410871541
0.0630436039124
0.0624580015038
0.0625336963239
0.0625308235478
0.0626212926608
0.0626333984131
0.062727055584
0.0627480894808
0.0628339537944
0.0628581017744
0.0629276456929
0.0629498614191
0.0629971734697
0.0630123474487
0.0630240519042
0.0630246482148
0.0625568138607
0.0625871716462
0.0626077712578
0.0626609268156
0.0626840680039
0.0627525837251
0.0627767186993
0.062848115038
0.062871711398
0.0629339238812
0.0629547570767
0.0629988186945
0.0630127937526
0.0630218829412
0.0630226553607
0.0622087273012
0.0623592552718
0.0623178297621
0.0624826864521
0.0624685003365
0.0626241235056
0.0626288909214
0.0627598369203
0.0627754441611
0.0628741528266
0.0628934771857
0.0629567993308
0.0629725983447
0.062985973955
0.0629862853748
0.0625070543607
0.0625086768414
0.0625463861115
0.0625899138216
0.0626173612036
0.062691911244
0.0627137830995
0.0627979970329
0.062817992642
0.0628926826728
0.0629112025638
0.0629635373944
0.062976585223
0.0629858779124
0.0629858972433
0.0618096536115
0.0621041221664
0.0619881813957
0.0622895719795
0.0622233633866
0.0624856089311
0.0624579911228
0.0626619140818
0.0626601572835
0.0628038717531
0.0628161054929
0.0629034409812
0.0629185094299
0.062936819743
0.0629362102181
0.0624606936919
0.0624002399331
0.0624649475171
0.0624909844701
0.0625199279293
0.0626082344599
0.0626215560218
0.0627301880781
0.0627414772785
0.0628381644241
0.0628514957694
0.0629179522951
0.0629290546222
0.0629402779303
0.0629391256377
0.0612101760504
0.0617906400033
0.0615249657382
0.062077040554
0.0619046119861
0.0623432148791
0.0622510009401
0.0625641885295
0.0625284092252
0.062734163708
0.0627316485386
0.0628501362954
0.0628616936657
0.062886311551
0.0628841530107
0.0624688283131
0.0622896625652
0.0623794718902
0.0623855950603
0.0623975962202
0.0625188396728
0.0625065593467
0.0626585511469
0.0626505678126
0.0627816144862
0.0627846821889
0.0628716243671
0.0628792601866
0.0628939663181
0.0628911779984
0.0603598624597
0.0614842032453
0.0609391813347
0.0619156181728
0.0615475147561
0.0622456984953
0.0620422940107
0.0624969932579
0.0624061319791
0.0626843117555
0.0626581616919
0.0628103061767
0.0628149937842
0.0628460115549
0.062841757521
0.0625216499287
0.0622051313004
0.0622472260079
0.0622969813314
0.06222847715
0.0624426608507
0.0623674870796
0.0625979782559
0.0625533292019
0.0627349408058
0.0627209625483
0.0628345943617
0.0628371587149
0.0628569847449
0.0628522737721
0.0593876507899
0.0613596504237
0.0603817703123
0.0619212755721
0.0612682119645
0.0622506027916
0.0619033374797
0.0624893266834
0.0623335559695
0.0626710788106
0.0626180180216
0.0627954173283
0.062791335399
0.0628265149791
0.0628200872075
0.0622453987322
0.062131915093
0.0618551680159
0.0622371325961
0.0619446057415
0.0623941067249
0.0621995465546
0.0625608121777
0.0624615386091
0.0627083806525
0.0626727002596
0.0628155904073
0.0628126467365
0.0628385440789
0.0628321591339
0.0592969854453
0.061752787351
0.0603607313928
0.0621712634515
0.0613059234421
0.0623688085668
0.0619368753853
0.0625445174549
0.0623541242337
0.0626985032649
0.0626304341684
0.062810221975
0.062799709662
0.0628341864736
0.0628264041275
0.060624531163
0.0606652104482
0.0606764272815
0.0607283621889
0.060749335854
0.0608062505675
0.0608321298604
0.0608868812247
0.0609127306053
0.0609587437193
0.0609802515126
0.0610124441658
0.061026292851
0.0610418318739
0.061046099099
0.0606272582229
0.0606671454071
0.0606792065781
0.0607303520344
0.0607519536853
0.060808137095
0.0608344066723
0.0608885338374
0.0609145913151
0.0609601223066
0.0609817705256
0.0610135783857
0.0610277530633
0.0610415689708
0.0610435682765
0.0606146236294
0.0606590421553
0.0606677368297
0.0607234412103
0.0607424121031
0.0608027229186
0.0608272479328
0.0608846642698
0.0609097950298
0.0609575567519
0.0609789248904
0.0610117735326
0.061025101907
0.061031786269
0.0610323744921
0.06059298331
0.0606356767526
0.0606495496918
0.0607047558274
0.0607284742436
0.0607888505956
0.0608169604618
0.060874690848
0.0609021875011
0.060950299519
0.0609731444332
0.0610061562613
0.0610200388662
0.0610249012715
0.0610256246674
0.0605072841653
0.0605691003523
0.0605704147735
0.0606458346247
0.0606610731738
0.0607402547917
0.0607637928866
0.0608367913215
0.0608626811405
0.0609215878977
0.0609446828848
0.0609839119455
0.060998812553
0.061004320755
0.0610048762528
0.0604717266244
0.0605260940795
0.0605431236941
0.0606130502415
0.0606421698215
0.0607168846959
0.0607505091958
0.060820367838
0.0608525038576
0.0609096210262
0.0609360055947
0.0609743985212
0.0609903124407
0.060994646287
0.0609951866993
0.060354232331
0.0604353432403
0.0604307886426
0.0605309830485
0.060544038254
0.0606484469144
0.0606724069448
0.06076683993
0.0607946811523
0.060869222555
0.060894971475
0.0609435765933
0.060960918904
0.0609673299798
0.0609677145523
0.0602901474638
0.0603716347399
0.0603889512688
0.0604869192564
0.0605212892607
0.0606197119029
0.0606597310966
0.0607480519011
0.0607858247039
0.060856173248
0.0608869447601
0.0609333998238
0.0609520443182
0.0609567839148
0.0609570994198
0.0601880925347
0.0602793615974
0.0602760861739
0.0603984413362
0.060413490659
0.0605445711976
0.0605709891612
0.0606893216588
0.0607200083921
0.0608122689417
0.0608410805817
0.0609004566381
0.0609204470045
0.0609279913476
0.0609280834679
0.0600532564131
0.0601946541616
0.0602002872904
0.0603475798569
0.0603818277617
0.0605147641851
0.0605592604463
0.0606714654795
0.06071426748
0.0608007583121
0.060835815516
0.0608919286047
0.0609134875388
0.0609189782603
0.0609189770445
0.0600629047122
0.0601259617101
0.0601462499128
0.0602702192274
0.0602993747603
0.0604480311997
0.0604819644918
0.0606201314728
0.0606552112173
0.0607631619769
0.0607952075837
0.0608643447397
0.0608867570961
0.0608950845242
0.0608947721922
0.0597905332902
0.0600441451309
0.0600118252414
0.0602309065596
0.0602525609577
0.0604265802851
0.0604702083272
0.0606078521539
0.0606530764385
0.0607558979008
0.060793881651
0.0608595279963
0.0608835061516
0.0608898398557
0.0608894395746
0.0600261551255
0.0600033980572
0.0600848388909
0.0601733180233
0.0602362933479
0.0603819756021
0.060430796834
0.0605768070807
0.0606180713559
0.0607345540213
0.0607695778984
0.0608445523492
0.0608685993035
0.0608769365515
0.0608761900129
0.0596226901656
0.0599886909279
0.0599034331091
0.0601731753019
0.0601776638815
0.060378215512
0.0604179137261
0.0605734246847
0.060618199941
0.0607331440228
0.0607718883135
0.0608446413128
0.0608699083786
0.0608769878796
0.0608761977559
0.0600145910382
0.0599606132457
0.0600955787497
0.0601499241121
0.0602435119658
0.0603738641448
0.0604347877183
0.060575648618
0.0606210555556
0.0607363248101
0.0607725851797
0.0608475756832
0.0608717731435
0.0608793088513
0.0608782093949
0.0592538418688
0.0592967866498
0.0592984989572
0.0593500401504
0.0593599538221
0.0594147849967
0.0594297853993
0.059481758788
0.0594982301697
0.059541661829
0.0595563171879
0.0595867766711
0.0595967786894
0.0596116277897
0.0596147762104
0.0592650430741
0.0593055541887
0.0593079794874
0.0593572111926
0.0593673085956
0.0594202069926
0.0594350003205
0.0594855470201
0.0595017435433
0.0595442163141
0.0595587103744
0.0595885969024
0.0595988405689
0.0596123323516
0.0596138545289
0.0592285850313
0.0592793499182
0.0592767293493
0.0593360560886
0.0593431163719
0.0594045301295
0.0594177464808
0.0594745666155
0.0594901788228
0.0595367212967
0.059551313336
0.059583322501
0.0595933809983
0.059601453059
0.05960174512
0.0592641414251
0.059303959585
0.0593050584081
0.0593548554125
0.0593622966437
0.0594169415068
0.059428776189
0.0594815061962
0.0594953459838
0.0595397118601
0.0595529844157
0.0595839789567
0.0595933093777
0.0595999669018
0.0596003976153
0.0591130092254
0.0591937203305
0.0591751462096
0.0592648121905
0.0592611406897
0.059348897628
0.0593555980609
0.059432523587
0.0594448754251
0.0595050002901
0.059518763574
0.0595584357658
0.0595690600958
0.0595774090781
0.0595776005999
0.0592159884912
0.0592596509077
0.0592568270707
0.0593144454243
0.0593167421118
0.0593816504822
0.0593886621712
0.0594515412405
0.0594619371275
0.0595143791519
0.0595258963529
0.0595618186943
0.0595705749958
0.0595772567078
0.059577264415
0.058942771344
0.0590743542083
0.0590282514118
0.0591680153199
0.059145223857
0.0592748607438
0.0592695080059
0.0593772787815
0.0593830948344
0.0594635162531
0.059474730325
0.0595257463275
0.0595363406389
0.0595468612271
0.059546590539
0.059148204843
0.059198470472
0.0591870534305
0.0592589643703
0.0592507686814
0.0593338526477
0.0593316740581
0.0594117439122
0.0594158511473
0.0594814782055
0.0594897279292
0.0595336387505
0.0595412816225
0.0595489998553
0.0595483534391
0.0587238461297
0.0589387607205
0.0588465301939
0.0590641814196
0.0590083652396
0.059198760131
0.0591722409964
0.0593218620175
0.0593158489985
0.0594223320845
0.0594282613744
0.0594932947906
0.0595027361069
0.0595160077938
0.0595149824513
0.0590696441522
0.0591320431948
0.05910195654
0.0591990543468
0.0591705254239
0.0592829659369
0.059264563762
0.059370203962
0.0593639414366
0.0594479343579
0.0594509692881
0.0595055610834
0.059511511791
0.059520965793
0.0595194580861
0.058478733839
0.0588164614057
0.0586560442393
0.0589807262194
0.0588749177202
0.0591415192034
0.0590833286497
0.059281112899
0.0592575704819
0.0593920157985
0.0593897884069
0.059469096459
0.0594761068633
0.0594920555239
0.0594900556304
0.0589721075701
0.05906711688
0.0589969099965
0.0591432188203
0.059078379632
0.0592377511503
0.0591940209492
0.0593349799162
0.0593140463299
0.0594208399409
0.0594169496738
0.0594839038422
0.059487805587
0.0594995432278
0.0594971210236
0.0582825404352
0.0587571964255
0.0585199218154
0.0589539624931
0.0587898282654
0.0591257674625
0.0590317268458
0.0592690778389
0.0592261986024
0.0593819087414
0.0593705237432
0.0594600752794
0.0594638567644
0.0594814552815
0.0594784960987
0.0588049681789
0.0589957262304
0.0588522194819
0.0590941108846
0.0589760275414
0.0592044907457
0.0591294268362
0.0593128255675
0.0592759310215
0.0594063480509
0.0593955832702
0.0594741352402
0.0594762934009
0.0594903878164
0.0594872339548
0.0583063740121
0.0588193988463
0.0585454073789
0.0590086327873
0.0588113615097
0.0591616144362
0.0590471307541
0.0592912623953
0.0592369568935
0.0593960570437
0.0593786975548
0.059469748488
0.0594707927784
0.0594881173527
0.059484525896
0.0574636378183
0.057494133755
0.0574988330672
0.0575356842752
0.057546797764
0.0575861058212
0.057600682057
0.0576380400257
0.0576531461225
0.0576843649505
0.0576972278796
0.0577190215888
0.0577274161604
0.0577379021376
0.0577404592705
0.0574653318311
0.057495605727
0.0575007174698
0.0575372494327
0.057548564803
0.057587543793
0.0576022652641
0.0576392985082
0.0576544880731
0.0576854426946
0.0576983871903
0.0577199488403
0.0577285875942
0.0577379374426
0.0577390009896
0.0574605613939
0.0574925498387
0.0574964966501
0.0575347174809
0.0575451044757
0.057585587532
0.0575997249964