/*--------------------------------*- C++ -*----------------------------------*\
| =========                 |                                                 |
| \\      /  F ield         | OpenFOAM: The Open Source CFD Toolbox           |
|  \\    /   O peration     | Version:  2406                                  |
|   \\  /    A nd           | Website:  www.openfoam.com                      |
|    \\/     M anipulation  |                                                 |
\*---------------------------------------------------------------------------*/
FoamFile
{
    version     2.0;
    format      ascii;
    arch        "LSB;label=32;scalar=64";
    class       surfaceScalarField;
    location    "0.01";
    object      phi;
}
// * * * * * * * * * * * * * * * * * * * * * * * * * * * * * * * * * * * * * //

dimensions      [0 3 -1 0 0 0 0];

oriented        oriented;

internalField   nonuniform List<scalar> 
86006
(
-1.97967590064e-08
2.80749608327e-08
0.000885962016448
-2.84361606385e-08
2.64256162216e-08
0.000885965005711
-3.57648623392e-08
2.48869525908e-08
0.000885962646985
-4.10310105758e-08
2.21974324137e-08
0.000885955210327
-4.44774443225e-08
2.00645468141e-08
0.000885982441964
-4.57905288726e-08
1.72220207665e-08
0.000885956502914
-4.53265856904e-08
1.5152226621e-08
0.000885957359688
-4.30968779239e-08
1.27301535156e-08
0.000885984580774
-3.94119243676e-08
1.10579661686e-08
0.000885958896911
-3.44752472829e-08
9.28291624303e-09
0.000885959456624
-2.84960122127e-08
8.10815001598e-09
0.000885986796637
-2.17987949853e-08
7.04034314676e-09
0.000885960458496
-1.45494432698e-08
6.42096195783e-09
0.000885956764609
-7.31366003236e-09
6.26236839455e-09
0.000885866928127
6.12729915724e-09
0.000882063842106
-2.04897399479e-08
5.69068444142e-08
0.000889030105862
-2.97827234062e-08
5.40832016268e-08
0.000889032914206
-3.74320899233e-08
5.04276622706e-08
0.000889030700771
-4.30059445006e-08
4.52357692073e-08
0.000889023127512
-4.65418212628e-08
4.05375123236e-08
0.000889050539543
-4.78362279521e-08
3.48787101834e-08
0.00088902448058
-4.72784460004e-08
3.04900350816e-08
0.000889025364016
-4.48432967451e-08
2.56277679465e-08
0.000889052701823
-4.09673454971e-08
2.21650624397e-08
0.000889026905082
-3.57473431221e-08
1.8592904358e-08
0.000889027475956
-2.95389019595e-08
1.62041858459e-08
0.000889054588942
-2.25475869077e-08
1.40532799778e-08
0.000889026070649
-1.51334832503e-08
1.28846057822e-08
0.000889008706907
-7.60826553554e-09
1.24088665307e-08
0.000888883828328
1.20013777849e-08
0.000885866927739
-2.29996312937e-08
8.89905880457e-08
0.00088922140333
-3.31490636005e-08
8.3835269081e-08
0.000889224459742
-4.15674734219e-08
7.80690235036e-08
0.000889222150761
-4.72909483847e-08
6.93718786115e-08
0.000889214823526
-5.08420218254e-08
6.19551160136e-08
0.000889242192084
-5.18466322864e-08
5.29274138909e-08
0.000889216323345
-5.09143303378e-08
4.6066109166e-08
0.000889217175361
-4.8017766701e-08
3.85514940136e-08
0.00088924465619
-4.36605372693e-08
3.31995425978e-08
0.000889218801082
-3.79644726653e-08
2.77837099738e-08
0.000889219307553
-3.1301542218e-08
2.41372030727e-08
0.000889245488981
-2.38821737257e-08
2.09190699979e-08
0.000889212830966
-1.60579234271e-08
1.91822898007e-08
0.000889181510733
-8.0455491666e-09
1.82689346567e-08
0.000889008714916
1.76046398586e-08
0.000885956782177
-2.48010445947e-08
1.22592333671e-07
0.000889259275714
-3.68141663534e-08
1.1674758084e-07
0.000889261893761
-4.58181036788e-08
1.06965553356e-07
0.000889259966124
-5.22972717858e-08
9.53383331821e-08
0.000889252378999
-5.58220427029e-08
8.39563866625e-08
0.000889280033502
-5.66918048203e-08
7.1601898027e-08
0.000889254062186
-5.53369213542e-08
6.16803750258e-08
0.00088925508971
-5.19082175205e-08
5.14256751643e-08
0.000889282553972
-4.69863205015e-08
4.39741053786e-08
0.000889256777377
-4.06774274677e-08
3.66480065287e-08
0.000889257217827
-3.34518869222e-08
3.16927245783e-08
0.000889283050073
-2.54573237716e-08
2.73713627384e-08
0.000889248868089
-1.70794642775e-08
2.50378187725e-08
0.000889212847139
-8.54295143624e-09
2.36771064073e-08
0.000889026087664
2.27124695007e-08
0.000885960475265
-3.37963699253e-08
1.67596731286e-07
0.000889291428291
-4.80519512982e-08
1.55591246525e-07
0.000889295150736
-5.95815698683e-08
1.42595836186e-07
0.000889292780633
-6.58821348298e-08
1.23712184589e-07
0.000889286143896
-6.92155652216e-08
1.08483740433e-07
0.000889313624398
-6.87480721894e-08
9.05805337538e-08
0.000889288275879
-6.60340630487e-08
7.75241826096e-08
0.000889289271651
-6.1006237995e-08
6.36731458823e-08
0.000889317088375
-5.45345606758e-08
5.4068847451e-08
0.000889291326678
-4.67678940539e-08
4.46012586742e-08
0.000889291922528
-3.81702468508e-08
3.83357130331e-08
0.000889317654825
-2.89310624484e-08
3.2886527318e-08
0.000889283064046
-1.93724323082e-08
2.99817450396e-08
0.000889245528244
-9.69443204699e-09
2.82153764195e-08
0.000889054633009
2.69981079556e-08
0.000885986858356
-3.71970984751e-08
2.14148580794e-07
0.000889266038771
-5.69826903921e-08
2.03149462288e-07
0.00088926779039
-6.95691600048e-08
1.80086542352e-07
0.000889266940396
-7.77142789956e-08
1.56538982765e-07
0.000889259139053
-8.06565091372e-08
1.33658767917e-07
0.000889287659558
-7.9596334783e-08
1.10702208998e-07
0.000889261815401
-7.57256896499e-08
9.30719330152e-08
0.000889263390934
-6.93052226303e-08
7.55512023131e-08
0.00088929105606
-6.1508118046e-08
6.34075495264e-08
0.000889265582046
-5.23274150365e-08
5.16896562535e-08
0.000889266150106
-4.24915399768e-08
4.40640898917e-08
0.000889291977889
-3.20096271218e-08
3.74348779959e-08
0.000889257267719
-2.13051843284e-08
3.39590562409e-08
0.00088921938008
-1.05871130222e-08
3.18295155493e-08
0.000889027538108
3.03993149897e-08
0.000885959515033
-6.22749559715e-08
2.92010213472e-07
0.000889257436053
-8.45456679858e-08
2.61549640332e-07
0.000889263621519
-1.01580949789e-07
2.32958253733e-07
0.000889260865012
-1.07013792148e-07
1.91837612602e-07
0.000889256484881
-1.0789515396e-07
1.63045836311e-07
0.000889284119031
-1.02987595576e-07
1.29990060997e-07
0.000889260210366
-9.54344922092e-08
1.08219679039e-07
0.000889261493177
-8.55637945053e-08
8.56563334522e-08
0.000889290096383
-7.44690397555e-08
7.10854379376e-08
0.00088926457487
-6.25950270103e-08
5.69816111528e-08
0.000889265563197
-5.02567257583e-08
4.80837289899e-08
0.000889291407953
-3.77147843281e-08
4.04042952227e-08
0.000889256848975
-2.5077504187e-08
3.64347936462e-08
0.000889218913802
-1.24996832778e-08
3.39896107554e-08
0.000889027012717
3.23747105548e-08
0.000885959032777
-6.52537082564e-08
3.6286952799e-07
0.000889286950744
-1.024255666e-07
3.4164264781e-07
0.000889284818442
-1.20267673693e-07
2.84758795531e-07
0.000889287830664
-1.28586508465e-07
2.3539341951e-07
0.000889278888753
-1.27931205734e-07
1.9135035023e-07
0.000889309997519
-1.20685847466e-07
1.50115970391e-07
0.000889284227703
-1.10841604574e-07
1.21977378127e-07
0.000889287143417
-9.79722449562e-08
9.44444013976e-08
0.000889315144504
-8.47116193563e-08
7.73004496806e-08
0.000889290312205
-7.04129184157e-08
6.0684805949e-08
0.000889291153157
-5.62698193977e-08
5.07211583836e-08
0.000889317272848
-4.1894672722e-08
4.19381721427e-08
0.000889282689728
-2.76899672822e-08
3.75876600885e-08
0.000889244823607
-1.36761016831e-08
3.48867158965e-08
0.000889052838189
3.31989497359e-08
0.000885984708295
-1.50120161462e-07
5.20131160993e-07
0.000889232730179
-1.74149356446e-07
4.25303088772e-07
0.000889249001793
-1.93603166566e-07
3.66579621348e-07
0.00088924418819
-1.88615588585e-07
2.74051936706e-07
0.000889247541699
-1.77948420612e-07
2.23481617098e-07
0.000889274875612
-1.61225412989e-07
1.65190270832e-07
0.000889254924101
-1.42054294132e-07
1.32609503394e-07
0.000889256506304
-1.22823114001e-07
9.91926845345e-08
0.000889286872279
-1.03221609281e-07
7.98784608542e-08
0.000889261687227
-8.47524338835e-08
6.14042977391e-08
0.000889263431853
-6.66538949892e-08
5.05772490084e-08
0.000889289501683
-4.94660822511e-08
4.12697585453e-08
0.000889255249428
-3.26273522365e-08
3.66787181236e-08
0.00088921740429
-1.61928647331e-08
3.38589041967e-08
0.000889025565216
3.21040219265e-08
0.000885957605632
-1.53635878211e-07
6.19150387955e-07
0.000889249785762
-2.18959543967e-07
5.69009236703e-07
0.000889231476062
-2.32791547783e-07
4.27663494067e-07
0.00088925017271
-2.26921718899e-07
3.24267246812e-07
0.000889236800486
-2.12406155937e-07
2.48526570365e-07
0.000889276015229
-1.87080337071e-07
1.77561371902e-07
0.000889249924842
-1.64426647998e-07
1.3983479304e-07
0.000889255965165
-1.38851625374e-07
1.00190992309e-07
0.000889284461935
-1.16389325975e-07
8.0160687782e-08
0.000889260821583
-9.40723488634e-08
5.94039945977e-08
0.000889262085248
-7.37970918618e-08
4.86785947271e-08
0.000889288676855
-5.42252914821e-08
3.87095356258e-08
0.000889254328368
-3.55847219343e-08
3.42340812223e-08
0.000889216631788
-1.74716772774e-08
3.13640589073e-08
0.000889024722769
2.97633059162e-08
0.000885956728431
-5.35728337211e-07
1.15385371124e-06
0.000889155384309
-4.14754501352e-07
5.48038811109e-07
0.000889242175564
-3.95833215482e-07
5.30863964423e-07
0.000889227337451
-3.47043910363e-07
3.37342282067e-07
0.000889259105849
-2.95351942867e-07
2.65895868574e-07
0.000889283632351
-2.52332925824e-07
1.76176415218e-07
0.000889274303746
-2.07695622277e-07
1.36099780803e-07
0.000889275587633
-1.72729122976e-07
9.41423219362e-08
0.000889309644172
-1.39013864831e-07
7.32543894605e-08
0.000889284747552
-1.11360328546e-07
5.32960424818e-08
0.000889287785585
-8.54769508615e-08
4.2698253484e-08
0.000889314110811
-6.27015718987e-08
3.35702979482e-08
0.000889280313925
-4.09631155572e-08
2.93384860532e-08
0.00088924259071
-2.02390016955e-08
2.67526108348e-08
0.00088905086578
2.52735996125e-08
0.000885982838609
-7.78203779831e-08
1.18181848871e-06
0.000889280186023
-5.22860469718e-07
1.24794510133e-06
0.000889133763754
-4.77334112523e-07
5.31023068738e-07
0.000889226587339
-4.00828462521e-07
3.54086567819e-07
0.0008892001759
-3.52197443216e-07
2.70523172379e-07
0.000889265030919
-2.81406865292e-07
1.57964229122e-07
0.00088923791582
-2.3603036568e-07
1.28991982743e-07
0.000889250338495
-1.8884173631e-07
7.95612587593e-08
0.000889279639071
-1.53057073659e-07
6.42084864721e-08
0.000889257787323
-1.20073237726e-07
4.31661677127e-08
0.000889259684468
-9.23399717752e-08
3.51106085577e-08
0.000889286859535
-6.69698756254e-08
2.63311804816e-08
0.000889252821883
-4.36275571619e-08
2.3047522271e-08
0.000889215316118
-2.1317234657e-08
2.07532336208e-08
0.000889023503436
1.97204318738e-08
0.000885955556658
-7.10469065651e-07
0
0.000889123421283
-8.84939843751e-07
1.34954634583e-06
0.000889212367164
-6.9336755085e-07
7.19757089913e-07
0.000889092977271
-6.06033642153e-07
3.21288551583e-07
0.000889219825967
-4.51446362038e-07
2.2625223636e-07
0.000889232032591
-3.72350092765e-07
1.27525143252e-07
0.000889247725593
-2.81917739117e-07
9.38607867565e-08
0.00088924678279
-2.27027789953e-07
5.7992105069e-08
0.000889287212721
-1.7412646279e-07
4.31664531771e-08
0.000889262333686
-1.36485927886e-07
2.91369901549e-08
0.000889267135985
-1.02205979029e-07
2.25774561761e-08
0.000889293667937
-7.42033069235e-08
1.68926170037e-08
0.000889260389144
-4.80114675861e-08
1.4471556002e-08
0.00088922277447
-2.36269369532e-08
1.30330738818e-08
0.00088903117743
1.2345757887e-08
0.000885963232746
-0
0
0
-1.28305096796e-06
0
0.000889111622441
-1.30886654892e-06
6.1256971966e-07
0.000889209739793
-5.98737908638e-07
-1.79753732979e-07
0.000889138944569
-5.33229896091e-07
2.31918232445e-07
0.000889260955979
-3.82259387762e-07
4.1879377153e-08
0.000889235106798
-3.07603107225e-07
6.77130500542e-08
0.000889254524991
-2.34946179152e-07
2.26741990871e-08
0.000889286247109
-1.83893739423e-07
2.29117294305e-08
0.000889265711283
-1.41044222606e-07
1.09716656021e-08
0.00088926866304
-1.06360191856e-07
9.54477194596e-09
0.000889296200444
-7.6466211833e-08
5.88676971055e-09
0.000889262537474
-4.94903707596e-08
5.17237185142e-09
0.00088922514848
-2.41490952275e-08
4.46383579848e-09
0.000889033435602
4.41816224439e-09
0.000885965475421
-0
0
-0
0
-1.06398498478e-06
0.000889148593236
-1.09230386586e-06
0.000889224593685
-6.23078476588e-07
0.000889192603364
-4.95404215767e-07
0.000889240392342
-3.35956486827e-07
0.000889238234723
-2.62445622207e-07
0.000889284655873
-1.93097110038e-07
0.000889260183013
-1.48992030069e-07
0.000889266151681
-1.09859296623e-07
0.000889292869687
-7.92342391482e-08
0.000889259846407
-5.09841136554e-08
0.000889222291936
-2.50134335234e-08
0.000889030745839
0.00088596281256
-1.92028774683e-08
2.65525352267e-08
0.000885944989554
-2.75683169306e-08
2.52596685421e-08
0.000885948111294
-3.46930403695e-08
2.36687959117e-08
0.000885946102716
-3.96812657801e-08
2.11408533331e-08
0.000885939057508
-4.31442507699e-08
1.92766581221e-08
0.000885966628106
-4.43139269183e-08
1.64571951898e-08
0.000885941215218
-4.40401113654e-08
1.47471420008e-08
0.000885942338561
-4.18413641027e-08
1.22951735521e-08
0.000885970086692
-3.84443253195e-08
1.09214507285e-08
0.000885944578268
-3.3671564743e-08
9.10997230918e-09
0.000885945573744
-2.79952941732e-08
8.11108466202e-09
0.00088597300914
-2.14992707834e-08
6.99687403939e-09
0.00088594696546
-1.44485498168e-08
6.40033760225e-09
0.000885943313415
-7.29431181969e-09
6.16059435106e-09
0.000885853613163
5.97808207622e-09
0.000882050569596
-1.95093188541e-08
5.32999995175e-08
0.000889013013752
-2.83680651925e-08
5.12519755691e-08
0.000889015780361
-3.5673002369e-08
4.75890514202e-08
0.000889014085167
-4.09696121435e-08
4.28037318375e-08
0.000889006760964
-4.45215381684e-08
3.86976098502e-08
0.000889034670249
-4.57542274373e-08
3.31329768381e-08
0.000889009037229
-4.5442042749e-08
2.9470872664e-08
0.000889010327854
-4.31317393215e-08
2.45613011548e-08
0.000889038125157
-3.96083149995e-08
2.16822947707e-08
0.000889012620588
-3.46379197371e-08
1.80355001927e-08
0.000889013579816
-2.88055607424e-08
1.59928961014e-08
0.000889040874562
-2.21158623472e-08
1.37602221809e-08
0.000889012617398
-1.50169153053e-08
1.2668355461e-08
0.000888995339742
-7.64761690054e-09
1.20606400765e-08
0.000888870558786
1.16205932269e-08
0.000885853637481
-2.29439954857e-08
8.34148517653e-08
0.000889202969715
-3.26728886581e-08
7.90821424555e-08
0.0008892063582
-4.08883809101e-08
7.34736207939e-08
0.000889204481413
-4.61966706907e-08
6.51819174747e-08
0.000889197753369
-4.96938856161e-08
5.87667135199e-08
0.000889225619942
-5.04705240762e-08
4.98073781408e-08
0.00088920042534
-4.96395652077e-08
4.40823800773e-08
0.000889201732663
-4.67310700002e-08
3.6490772116e-08
0.000889229818004
-4.25969493015e-08
3.2027949743e-08
0.000889204321096
-3.70636678666e-08
2.65163352595e-08
0.000889205293235
-3.07057721399e-08
2.34063035633e-08
0.000889231717484
-2.35628239477e-08
2.01013416531e-08
0.00088919934671
-1.60636142327e-08
1.85544907846e-08
0.000889168125204
-8.1681372784e-09
1.75389711999e-08
0.000888995340927
1.68881353233e-08
0.000885943346375
-2.29261785079e-08
1.12879711877e-07
0.00088924110151
-3.43086161243e-08
1.09110135813e-07
0.000889243247923
-4.2630734124e-08
9.93889916488e-08
0.000889242372591
-4.88315717874e-08
8.89131696547e-08
0.000889234848309
-5.24361281833e-08
7.89967098728e-08
0.0008892634078
-5.33707969004e-08
6.69670252524e-08
0.000889237836954
-5.24485564659e-08
5.86932359893e-08
0.000889239556374
-4.9300981314e-08
4.83809865005e-08
0.000889267515954
-4.49110075157e-08
4.21908743568e-08
0.000889242224262
-3.90028902184e-08
3.4728803936e-08
0.000889243097034
-3.23198065462e-08
3.05352191561e-08
0.000889269237875
-2.47937770533e-08
2.61050806249e-08
0.000889235338129
-1.69136560663e-08
2.40806782337e-08
0.000889199440645
-8.59739593724e-09
2.26026204328e-08
0.000889012707572
2.16721193342e-08
0.000885947093761
-3.45834265277e-08
1.54140877887e-07
0.000889268753661
-4.78647335755e-08
1.4414717314e-07
0.000889273394717
-5.92172217906e-08
1.31821435557e-07
0.000889271700379
-6.45570296741e-08
1.13986076581e-07
0.000889266410515
-6.79366800222e-08
1.0135886619e-07
0.000889294641615
-6.69735452645e-08
8.36596947784e-08
0.000889270619813
-6.44742033568e-08
7.31757728842e-08
0.00088927228952
-5.93672736194e-08
5.91837569635e-08
0.000889301178437
-5.3217607694e-08
5.14240166615e-08
0.000889275943642
-4.56468615173e-08
4.17848539837e-08
0.000889277295517
-3.74485758955e-08
3.66046897991e-08
0.000889303386862
-2.85650584882e-08
3.10486429785e-08
0.000889269236768
-1.94119216135e-08
2.86056002704e-08
0.000889231849994
-9.85221831306e-09
2.66870192476e-08
0.00088904098872
2.55094226505e-08
0.000885973168707
-3.21785401885e-08
1.91289069753e-07
0.000889244933469
-5.07028874127e-08
1.8579755819e-07
0.00088924466405
-6.19494627182e-08
1.63441213575e-07
0.0008892465669
-6.98929593842e-08
1.42840890823e-07
0.000889238227439
-7.3513722001e-08
1.23860933937e-07
0.000889268777975
-7.29542858183e-08
1.01579722404e-07
0.000889243335663
-7.02907332372e-08
8.76356605907e-08
0.000889246267236
-6.46043746446e-08
6.99107617374e-08
0.000889274642447
-5.79157290216e-08
6.02881910922e-08
0.000889250028991
-4.9488806166e-08
4.82614435952e-08
0.000889251246368
-4.0559472192e-08
4.20674984484e-08
0.000889277585533
-3.07915866021e-08
3.52513357474e-08
0.000889243296936
-2.07964619262e-08
3.23722885249e-08
0.000889205618071
-1.04672081502e-08
3.00283591098e-08
0.000889013867322
2.86481826455e-08
0.000885945908934
-6.49599136653e-08
2.58910841046e-07
0.000889225330974
-8.40762218304e-08
2.34238976173e-07
0.000889234296115
-1.0083901825e-07
2.08412119057e-07
0.000889232656581
-1.03958343647e-07
1.70828853115e-07
0.000889231615953
-1.05310262608e-07
1.48943719295e-07
0.000889260387869
-9.95722089925e-08
1.16739710267e-07
0.00088923931205
-9.2650985491e-08
1.006074723e-07
0.00088924159987
-8.27822967043e-08
7.78822575265e-08
0.000889272255944
-7.229809231e-08
6.68525408148e-08
0.000889247526068
-6.07910224537e-08
5.24688646314e-08
0.000889249848473
-4.90395067092e-08
4.54851696372e-08
0.000889276238543
-3.70027602009e-08
3.76514234106e-08
0.000889242411929
-2.4899061337e-08
3.44675105113e-08
0.000889204714677
-1.25478724987e-08
3.1741979088e-08
0.000889012947709
3.01622537099e-08
0.000885944970697
-5.09023304177e-08
3.09046153865e-07
0.000889261586945
-8.55063051046e-08
3.01037196054e-07
0.000889252623865
-1.01469767446e-07
2.49240519193e-07
0.000889262965423
-1.10387856263e-07
2.06979412167e-07
0.000889251655962
-1.12704555057e-07
1.73902368792e-07
0.000889287355283
-1.07315195974e-07
1.33730595774e-07
0.000889261847168
-1.0063237772e-07
1.13662788134e-07
0.000889267405015
-8.95410540288e-08
8.54476725517e-08
0.000889296487499
-7.85433066734e-08
7.30123041425e-08
0.000889273154443
-6.56565599317e-08
5.57122567949e-08
0.000889275022774
-5.30221725956e-08
4.81493815693e-08
0.000889301974017
-3.97453843852e-08
3.90147673521e-08
0.000889268049374
-2.65719613616e-08
3.56003332068e-08
0.00088923051715
-1.32392841379e-08
3.25226181494e-08
0.000889038724666
3.08879690985e-08
0.000885970743154
-1.531954508e-07
4.35014412225e-07
0.000889181221956
-1.68032496348e-07
3.57953797805e-07
0.000889206921941
-1.87777804811e-07
3.09879238416e-07
0.000889203294407
-1.78230694356e-07
2.29815198836e-07
0.000889215158493
-1.70097253754e-07
1.97127422586e-07
0.000889243516791
-1.52927303376e-07
1.41918761512e-07
0.000889229565701
-1.35775613097e-07
1.2073093236e-07
0.000889232286181
-1.17309813165e-07
8.73733493739e-08
0.000889266480535
-9.90511761912e-08
7.41260268316e-08
0.000889242314602
-8.15090394873e-08
5.52799675358e-08
0.000889246321755
-6.43752428583e-08
4.73817642545e-08
0.000889273135262
-4.80295711448e-08
3.78654389274e-08
0.000889240052855
-3.19624162026e-08
3.43917938544e-08
0.000889202545454
-1.59992941587e-08
3.11417249119e-08
0.000889010982773
2.94014650636e-08
0.000885943092696
-1.04147377163e-07
5.01298336718e-07
0.00088922177065
-1.67102509748e-07
4.71260321289e-07
0.000889181124258
-1.84632632033e-07
3.5760595634e-07
0.000889219975791
-1.84046388e-07
2.66943945221e-07
0.00088919908511
-1.80446817095e-07
2.21431005204e-07
0.000889248111767
-1.61017790508e-07
1.50684655786e-07
0.0008892217296
-1.46025979609e-07
1.29116292486e-07
0.000889232587713
-1.24491426854e-07
8.75272700243e-08
0.000889262773178
-1.06364118453e-07
7.52881551768e-08
0.000889241531881
-8.66116241879e-08
5.32072790191e-08
0.000889244405181
-6.87410010903e-08
4.59584737986e-08
0.000889272229275
-5.08366301781e-08
3.54080778714e-08
0.000889238881119
-3.36535877547e-08
3.21717698104e-08
0.000889201668543
-1.66207970676e-08
2.87565579723e-08
0.000889010074924
2.71941736065e-08
0.000885942314775
-5.13681759671e-07
7.54315481928e-07
0.000889071402288
-3.78283027923e-07
3.92525590274e-07
0.000889185511174
-3.62484722434e-07
4.01285824651e-07
0.00088916785878
-3.10195731722e-07
2.53938994426e-07
0.000889219821463
-2.70125749116e-07
2.23179850911e-07
0.000889241813127
-2.31298749646e-07
1.41759355542e-07
0.000889244401738
-1.92909814314e-07
1.2043373528e-07
0.000889245880937
-1.61560665126e-07
7.92305024934e-08
0.00088928659151
-1.30897291774e-07
6.67238808088e-08
0.000889262648171
-1.05582044661e-07
4.64397273322e-08
0.000889269237625
-8.13738517758e-08
3.94306131584e-08
0.000889296430221
-6.00929119609e-08
3.0091104096e-08
0.000889264349714
-3.95025820004e-08
2.71227130127e-08
0.000889227049203
-1.96613032108e-08
2.40093569531e-08
0.000889035771475
2.2484574624e-08
0.00088596788675
1.07869468501e-08
7.52447736827e-07
0.000889296208652
-3.62213819442e-07
8.47509602983e-07
0.000889051779878
-3.67260701139e-07
4.35347221024e-07
0.000889197572414
-3.08018407485e-07
2.45014432229e-07
0.000889149857668
-2.90209638467e-07
2.39677319632e-07
0.000889230724338
-2.35736230029e-07
1.22418484093e-07
0.000889202782909
-2.05931593644e-07
1.18580533825e-07
0.000889222386759
-1.66896480038e-07
6.52029667319e-08
0.000889254631188
-1.38310178052e-07
5.98890643168e-08
0.000889236035559
-1.0959068194e-07
3.69679185807e-08
0.000889240436504
-8.52872791685e-08
3.27948333326e-08
0.000889269191651
-6.22928152654e-08
2.33190799722e-08
0.000889236599192
-4.08450636676e-08
2.12849570107e-08
0.000889199705884
-2.00507384271e-08
1.83716319098e-08
0.000889008346604
1.72923590229e-08
0.000885940697978
-4.6564317273e-07
0
0.000888579935639
-6.15553060916e-07
9.54468181536e-07
0.000889255317384
-5.60233973989e-07
4.51185159189e-07
0.000889021819602
-4.92918187483e-07
2.09506100899e-07
0.000889188018094
-3.83133824799e-07
1.81285612274e-07
0.000889180639451
-3.2489111336e-07
9.59499318213e-08
0.000889215951098
-2.5100015367e-07
7.9645947252e-08
0.000889211826065
-2.06417562614e-07
4.54867693841e-08
0.000889262346031
-1.59873344568e-07
3.78277112894e-08
0.000889237850522
-1.27101988153e-07
2.38001133987e-08
0.000889247532157
-9.56226569533e-08
2.0056995e-08
0.000889274926174
-7.00689648359e-08
1.42897260307e-08
0.000889243864552
-4.55157281745e-08
1.27891535273e-08
0.000889206716794
-2.25521366944e-08
1.08600586154e-08
0.000889015725176
9.98408128409e-09
0.000885947988726
-0
0
0
-9.40994547308e-07
0
0.00088843879789
-9.02869298393e-07
3.61735992751e-07
0.000889261062611
-4.62425075505e-07
-1.77597855407e-07
0.000889085603707
-4.38319778656e-07
2.01391838182e-07
0.000889216744048
-3.18916380557e-07
1.64029868446e-08
0.000889195249939
-2.66165062534e-07
6.01692165745e-08
0.000889221250087
-2.06933401449e-07
1.33661314486e-08
0.000889259135768
-1.65204120645e-07
2.0161159755e-08
0.000889241648261
-1.28443078003e-07
7.27875901412e-09
0.000889248423064
-9.78146060711e-08
8.07337366268e-09
0.000889277555323
-7.09281636866e-08
4.1079623474e-09
0.000889245832536
-4.61061069792e-08
4.02711054613e-09
0.000889209088222
-2.26108632889e-08
2.84394285937e-09
0.000889017956236
2.54028767076e-09
0.00088595030819
-0
0
-0
0
-7.57487597802e-07
0.00088857802487
-8.10734599891e-07
0.00088922150078
-4.88817008567e-07
0.000889134484188
-4.08890513742e-07
0.000889209766108
-2.86323620371e-07
0.000889201168888
-2.31338786986e-07
0.000889259378655
-1.72959093698e-07
0.000889234916861
-1.36127993918e-07
0.000889246221371
-1.01072449635e-07
0.000889273826684
-7.36939738884e-08
0.000889243164525
-4.75449517518e-08
0.000889206100223
-2.34570710978e-08
0.000889015223259
0.000885947550199
-1.82121350826e-08
2.46381804634e-08
0.000885929168204
-2.58424059291e-08
2.31186624327e-08
0.000885932622717
-3.23866167509e-08
2.1908591639e-08
0.000885930738143
-3.70319090896e-08
1.95271816828e-08
0.00088592417543
-4.01255631477e-08
1.77508412832e-08
0.000885951970736
-4.12489157825e-08
1.52459953172e-08
0.000885927092398
-4.08423205055e-08
1.34640455576e-08
0.00088592846775
-3.87945738538e-08
1.13232232124e-08
0.00088595671556
-3.54940371535e-08
9.84549677996e-09
0.000885931432078
-3.10213479595e-08
8.26780067979e-09
0.000885932833104
-2.56515289712e-08
7.20216672627e-09
0.000885960437009
-1.96047443457e-08
6.24814196705e-09
0.000885934670392
-1.30729290982e-08
5.66107841525e-09
0.000885931120383
-6.5652193341e-09
5.54653707916e-09
0.000885841558779
5.4235186937e-09
0.000882038580738
-1.89479072308e-08
5.01537838875e-08
0.000888996745693
-2.71042131955e-08
4.72030957621e-08
0.000888999851955
-3.3896082385e-08
4.44286347895e-08
0.000888998356712
-3.87652878417e-08
3.9635691657e-08
0.000888991521386
-4.18908604913e-08
3.58021040115e-08
0.000889019744293
-4.29823013713e-08
3.07400334086e-08
0.000888994634376
-4.24657245862e-08
2.70152912004e-08
0.000888996259785
-4.02439767791e-08
2.2695516856e-08
0.000889024530879
-3.67683899298e-08
1.96721194729e-08
0.000888999318152
-3.20656671751e-08
1.64894000209e-08
0.000889000655275
-2.65064211679e-08
1.43506573843e-08
0.000889028166612
-2.02283965178e-08
1.24237813605e-08
0.000889000163526
-1.3589702917e-08
1.13463298008e-08
0.000888983015593
-6.8436041877e-09
1.09672120302e-08
0.000888858391809
1.0624912161e-08
0.000885841592351
-2.07227913591e-08
7.70622380234e-08
0.00088918640069
-2.95967838443e-08
7.24285699243e-08
0.000889190006458
-3.69800753766e-08
6.78484023814e-08
0.000889188444673
-4.2043488736e-08
6.03251438892e-08
0.000889182127073
-4.52243576378e-08
5.41930386333e-08
0.000889210409627
-4.6135814797e-08
4.63714794548e-08
0.000889185705112
-4.53589753617e-08
4.05376063188e-08
0.000889187433279
-4.27922934971e-08
3.39638645079e-08
0.000889215982755
-3.89518809332e-08
2.9309727005e-08
0.000889190842866
-3.38751989726e-08
2.45213531204e-08
0.000889192184398
-2.79598512067e-08
2.12862149478e-08
0.000889218866383
-2.13419396624e-08
1.84157744722e-08
0.000889186736615
-1.43809481633e-08
1.68557005496e-08
0.000889155654656
-7.21567526137e-09
1.61131131658e-08
0.000888983029568
1.55781091976e-08
0.000885931177378
-2.29979862564e-08
1.06739680136e-07
0.000889223026984
-3.32463160836e-08
1.00116061629e-07
0.000889225808488
-4.11994638202e-08
9.29863239872e-08
0.000889225187542
-4.67189195898e-08
8.22726690174e-08
0.000889218419972
-4.98144314158e-08
7.32664381952e-08
0.000889247429654
-5.05289244505e-08
6.23534661698e-08
0.000889222569212
-4.93270291987e-08
5.4113396348e-08
0.000889224778451
-4.62778873506e-08
4.51025859989e-08
0.000889253327864
-4.1916403114e-08
3.8711490697e-08
0.000889228460798
-3.63100269541e-08
3.22372862977e-08
0.000889229774517
-2.98978759694e-08
2.78903402982e-08
0.000889256221399
-2.27892705117e-08
2.40490680437e-08
0.000889222596037
-1.53458814668e-08
2.19920911288e-08
0.000889186860677
-7.70268953097e-09
2.08764699635e-08
0.000889000300837
2.01072586371e-08
0.000885934861796
-2.90543639337e-08
1.40983452521e-07
0.000889250035635
-4.14780047988e-08
1.31180762008e-07
0.000889254753376
-5.1427964562e-08
1.20906667099e-07
0.000889253729712
-5.72594544364e-08
1.05603738627e-07
0.000889248910659
-6.04489086869e-08
9.31937651842e-08
0.000889277903475
-6.03355882285e-08
7.8324722719e-08
0.000889254534978
-5.82154829008e-08
6.73777330497e-08
0.000889256904831
-5.39448053928e-08
5.55783834634e-08
0.000889286431727
-4.83822596538e-08
4.73364785732e-08
0.000889261755884
-4.15705459898e-08
3.9102271026e-08
0.000889263618604
-3.40191473997e-08
3.3626143854e-08
0.000889290099455
-2.58358813048e-08
2.88299920294e-08
0.00088925627238
-1.73617060768e-08
2.62901754522e-08
0.000889219077542
-8.71072018901e-09
2.48412184563e-08
0.000889028372795
2.38643506968e-08
0.000885960700766
-3.53947971697e-08
1.83341300469e-07
0.000889221550875
-5.12268845104e-08
1.6833809093e-07
0.000889223338517
-6.21280011669e-08
1.52981697389e-07
0.000889225392693
-6.87080989747e-08
1.31490658562e-07
0.000889218920331
-7.12171210885e-08
1.14366815606e-07
0.000889250113671
-7.03409896895e-08
9.46957761928e-08
0.000889226088211
-6.69776064173e-08
8.04893055663e-08
0.000889229792024
-6.14609681278e-08
6.55215981906e-08
0.000889259182349
-5.46324724134e-08
5.52992444082e-08
0.000889235237496
-4.65925382732e-08
4.51578474368e-08
0.000889237150634
-3.79120847426e-08
3.85644369221e-08
0.000889263966574
-2.86426028324e-08
3.27660172719e-08
0.000889230091224
-1.91419318623e-08
2.9756501522e-08
0.000889192650875
-9.55148024591e-09
2.80166005454e-08
0.000889001101293
2.68796783981e-08
0.000885933341994
-4.86631188351e-08
2.33064641789e-07
0.000889203190451
-6.86710514972e-08
2.11529755732e-07
0.00088921111209
-8.32081434905e-08
1.88791240718e-07
0.000889211383835
-8.95095496564e-08
1.58959411396e-07
0.000889210448316
-9.14775028747e-08
1.3577974119e-07
0.000889240942616
-8.83561635394e-08
1.10228725782e-07
0.000889220657489
-8.27692642116e-08
9.21992391103e-08
0.000889224302775
-7.47156118329e-08
7.38503314524e-08
0.000889255873306
-6.55072016864e-08
6.15024993794e-08
0.000889232114161
-5.52840155044e-08
4.95923008213e-08
0.000889235190602
-4.4603540639e-08
4.19102018679e-08
0.000889262212082
-3.35728888078e-08
3.52813543905e-08
0.000889228865728
-2.24223698913e-08
3.18560205673e-08
0.000889191464435
-1.12090618237e-08
2.98684563231e-08
0.000888999882344
2.85705331817e-08
0.000885932070644
-6.63868534944e-08
3.05611363081e-07
0.000889225646817
-9.17348909121e-08
2.64948905633e-07
0.000889224552448
-1.05881340049e-07
2.32148800344e-07
0.000889233754
-1.11715242987e-07
1.88698729977e-07
0.000889227750247
-1.10658398024e-07