/*--------------------------------*- C++ -*----------------------------------*\
| =========                 |                                                 |
| \\      /  F ield         | OpenFOAM: The Open Source CFD Toolbox           |
|  \\    /   O peration     | Version:  2406                                  |
|   \\  /    A nd           | Website:  www.openfoam.com                      |
|    \\/     M anipulation  |                                                 |
\*---------------------------------------------------------------------------*/
FoamFile
{
    version     2.0;
    format      ascii;
    arch        "LSB;label=32;scalar=64";
    class       surfaceScalarField;
    location    "0.01";
    object      phiHbyA;
}
// * * * * * * * * * * * * * * * * * * * * * * * * * * * * * * * * * * * * * //

dimensions      [0 3 -1 0 0 0 0];

oriented        oriented;

internalField   nonuniform List<scalar> 
86006
(
-1.97234068448e-08
2.80936867299e-08
0.00088596137178
-2.8372936152e-08
2.64244793958e-08
0.00088596436466
-3.56528968115e-08
2.49016211586e-08
0.000885962001143
-4.09393855025e-08
2.21962096943e-08
0.000885954569691
-4.43465467561e-08
2.00743638232e-08
0.000885981793963
-4.56894611033e-08
1.72212888442e-08
0.000885955861348
-4.5198038555e-08
1.51581921158e-08
0.000885956709867
-4.30030073299e-08
1.27300867365e-08
0.000885983937603
-3.93034717648e-08
1.10614746515e-08
0.000885958246457
-3.44010969787e-08
9.28332599766e-09
0.000885958812089
-2.84200419446e-08
8.11018047502e-09
0.00088598614696
-2.17527980572e-08
7.04078635696e-09
0.000885959813203
-1.45123762697e-08
6.42213547877e-09
0.000885956116731
-7.29937492937e-09
6.25923118712e-09
0.000885866282343
6.11796585482e-09
0.000882063195322
-2.04366187801e-08
5.67544706316e-08
0.000889029487175
-2.97041061795e-08
5.40071950313e-08
0.000889032291041
-3.73366188126e-08
5.03037687042e-08
0.000889030076407
-4.29038428804e-08
4.51790095801e-08
0.000889022501486
-4.64222003209e-08
4.04491829964e-08
0.000889049907514
-4.77290676475e-08
3.48396280142e-08
0.00088902385014
-4.715665844e-08
3.04330271452e-08
0.000889024725422
-4.47464049907e-08
2.56025303243e-08
0.000889052066868
-4.08626108703e-08
2.21311322807e-08
0.000889026262492
-3.56720062567e-08
1.85774726773e-08
0.000889026837603
-2.94649537292e-08
1.6185573626e-08
0.000889053945117
-2.25011199476e-08
1.40438301753e-08
0.000889025430407
-1.51008761736e-08
1.28722579929e-08
0.000889008063855
-7.6001855233e-09
1.23809699557e-08
0.000888883185816
1.19695676711e-08
0.00088586628291
-2.28710158924e-08
8.90392501966e-08
0.00088922073578
-3.31188552888e-08
8.36912856286e-08
0.000889223809436
-4.14061018659e-08
7.80918190902e-08
0.00088922148849
-4.72212373578e-08
6.9254027924e-08
0.000889214179762
-5.06745317173e-08
6.19549871958e-08
0.000889241535135
-5.17583324826e-08
5.28437096614e-08
0.000889215683236
-5.07620808891e-08
4.60529842967e-08
0.000889216522827
-4.79304473734e-08
3.84963069024e-08
0.000889244017203
-4.35383868721e-08
3.31816367968e-08
0.000889218152278
-3.78930159189e-08
2.77475840981e-08
0.000889218668662
-3.12191702145e-08
2.41184945497e-08
0.000889244843825
-2.38389775886e-08
2.08936845972e-08
0.000889212192102
-1.60408892668e-08
1.91620362378e-08
0.000889180868323
-8.04126201458e-09
1.82421637133e-08
0.000889008070403
1.75781880011e-08
0.000885956133682
-2.48651488083e-08
1.21820965418e-07
0.000889258759865
-3.6617459021e-08
1.16402305492e-07
0.00088926132708
-4.57975986407e-08
1.0634689064e-07
0.000889259420342
-5.21101532907e-08
9.50746678932e-08
0.000889251798608
-5.57384321557e-08
8.35195169091e-08
0.000889279453023
-5.65332261361e-08
7.14080906877e-08
0.000889253465218
-5.52270504835e-08
6.13955246447e-08
0.000889254482163
-5.17838759263e-08
5.12877988975e-08
0.000889281942018
-4.68826634428e-08
4.37966764292e-08
0.000889256153199
-4.0588746371e-08
3.65520398077e-08
0.000889256594902
-3.33763765574e-08
3.15844713133e-08
0.000889282418075
-2.54090447785e-08
2.73031273622e-08
0.000889248238658
-1.70687610607e-08
2.49702457722e-08
0.00088921221228
-8.53819622658e-09
2.36174439635e-08
0.000889025449171
2.2651923841e-08
0.000885959832669
-3.34344055096e-08
1.67997374773e-07
0.000889290690599
-4.81286472712e-08
1.55256785141e-07
0.000889294475134
-5.92061035712e-08
1.42852599436e-07
0.000889292065426
-6.5868230308e-08
1.23443301372e-07
0.000889285490908
-6.88889428703e-08
1.08609225862e-07
0.000889312932355
-6.86805619023e-08
9.0402330544e-08
0.000889287634361
-6.57772483571e-08
7.75663103215e-08
0.000889288597781
-6.09214747834e-08
6.3563994642e-08
0.000889316450117
-5.43494677607e-08
5.40682664777e-08
0.000889290665632
-4.66915114552e-08
4.4533670532e-08
0.000889291284143
-3.8054720073e-08
3.83154776261e-08
0.000889317003202
-2.8881966649e-08
3.28406893098e-08
0.000889282425059
-1.93532175318e-08
2.99498072752e-08
0.000889244883266
-9.69021125545e-09
2.8174551501e-08
0.000889053987016
2.69582675973e-08
0.000885986207837
-3.75702454189e-08
2.12291427934e-07
0.00088926573231
-5.64681654496e-08
2.0265854467e-07
0.000889267314222
-6.9719355858e-08
1.7870425764e-07
0.000889266540684
-7.7306012258e-08
1.56201024944e-07
0.000889258628263
-8.06335833451e-08
1.3276948949e-07
0.000889287162744
-7.93084942042e-08
1.10450611522e-07
0.000889261265873
-7.56201602776e-08
9.25423528161e-08
0.000889262825318
-6.91118964794e-08
7.53657109903e-08
0.000889290473083
-6.13900404754e-08
6.31030978313e-08
0.000889264976877
-5.22036819169e-08
5.15574972425e-08
0.000889265543018
-4.24016132538e-08
4.38912525417e-08
0.000889291353899
-3.19465385142e-08
3.73405414544e-08
0.00088925664593
-2.12945103026e-08
3.38605470874e-08
0.000889218748791
-1.05816735457e-08
3.17483850701e-08
0.000889026903168
3.03166276155e-08
0.000885958875362
-6.12818818673e-08
2.93513943049e-07
0.000889256576907
-8.49224943544e-08
2.60693675417e-07
0.000889262936116
-1.00686836052e-07
2.33889150673e-07
0.000889260066943
-1.07156810945e-07
1.9120908993e-07
0.000889255848843
-1.07234583745e-07
1.63506713963e-07
0.000889283377234
-1.02977737771e-07
1.29633637523e-07
0.000889259588776
-9.49848735456e-08
1.08406782369e-07
0.000889260791989
-8.54894326233e-08
8.54707827841e-08
0.000889289472316
-7.4178669496e-08
7.11408404998e-08
0.000889263899639
-6.25119648308e-08
5.68827537155e-08
0.000889264932658
-5.00882739139e-08
4.80811165579e-08
0.000889290749451
-3.76556347491e-08
4.03453026175e-08
0.000889256213139
-2.50485944015e-08
3.64026524203e-08
0.000889218266457
-1.24953248403e-08
3.39414419506e-08
0.000889026367125
3.23286325026e-08
0.000885958381712
-6.66203631683e-08
3.58195249029e-07
0.000889287103579
-1.01015498273e-07
3.41391050663e-07
0.000889284484169
-1.20933007462e-07
2.81665234479e-07
0.00088928771676
-1.2764011224e-07
2.35291962601e-07
0.000889278482998
-1.28087927436e-07
1.89629518076e-07
0.000889309643062
-1.20132438022e-07
1.49959854682e-07
0.000889283748087
-1.10764631958e-07
1.21086803945e-07
0.000889286640262
-9.76569259138e-08
9.4281928868e-08
0.000889314603501
-8.45755072581e-08
7.68480106375e-08
0.000889289732353
-7.023360519e-08
6.05523201926e-08
0.000889290568789
-5.61577373138e-08
5.04906809423e-08
0.00088931665874
-4.18085582284e-08
4.18387410494e-08
0.000889282078706
-2.76767014995e-08
3.74712105092e-08
0.000889244196523
-1.36693785254e-08
3.47984994651e-08
0.000889052207904
3.31075415689e-08
0.000885984072207
-1.4706470712e-07
5.24893536045e-07
0.000889231661081
-1.75581412928e-07
4.22505155637e-07
0.000889248390434
-1.91276350219e-07
3.69488296356e-07
0.000889243266115
-1.89288544252e-07
2.72382378989e-07
0.000889247006528
-1.76540473257e-07
2.24784525009e-07
0.000889274065664
-1.61406489685e-07
1.64434427329e-07
0.000889254375317
-1.41249217275e-07
1.33108199807e-07
0.000889255771802
-1.22797775943e-07
9.88750414616e-08
0.000889286290157
-1.02765543169e-07
8.00427663509e-08
0.000889260997216
-8.46711088956e-08
6.12665292296e-08
0.000889262822646
-6.64107389224e-08
5.06117708157e-08
0.000889288837517
-4.93967266268e-08
4.12024505981e-08
0.000889254622902
-3.25848765467e-08
3.66569188713e-08
0.000889216756296
-1.61888116223e-08
3.38122074959e-08
0.000889024922683
3.20608835053e-08
0.000885956956093
-1.58140110544e-07
6.0635394787e-07
0.000889251087114
-2.14684100433e-07
5.70925101386e-07
0.000889231346754
-2.35042897079e-07
4.20202230628e-07
0.000889250582843
-2.24622308195e-07
3.25574827196e-07
0.000889236535786
-2.13056889874e-07
2.45157141581e-07
0.000889275871703
-1.86006873856e-07
1.77901149099e-07
0.000889249537186
-1.64437888881e-07
1.38401943109e-07
0.000889255537997
-1.38344355528e-07
1.00188567868e-07
0.000889283974664
-1.16235333874e-07
7.95480539604e-08
0.00088926026718
-9.38187366238e-08
5.932682284e-08
0.000889261529023
-7.36557592152e-08
4.84097518037e-08
0.000889288071212
-5.41103186791e-08
3.86332605236e-08
0.000889253730142
-3.55668163734e-08
3.41189239827e-08
0.000889216008255
-1.74638049394e-08
3.12879801081e-08
0.000889024097459
2.96816703518e-08
0.000885956095856
-5.2553636104e-07
1.16448825999e-06
0.00088915413674
-4.19866810903e-07
5.38032887053e-07
0.000889242138723
-3.89316041569e-07
5.39231555393e-07
0.000889226338646
-3.49421525631e-07
3.32681837999e-07
0.000889258894402
-2.92293475725e-07
2.69155908174e-07
0.000889282765661
-2.53032137251e-07
1.74616085797e-07
0.000889273932776
-2.06276394605e-07
1.37156681759e-07
0.000889274825337
-1.72832065696e-07
9.36297284204e-08
0.00088930914744
-1.38324381708e-07
7.35768678644e-08
0.000889284046958
-1.11298375641e-07
5.31186531502e-08
0.00088928721494
-8.5143008655e-08
4.27819926447e-08
0.000889313444021
-6.262524664e-08
3.3502313385e-08
0.000889279703391
-4.09052152571e-08
2.93351100294e-08
0.000889241944218
-2.0236227703e-08
2.6716777865e-08
0.000889050228947
2.5242888469e-08
0.000885982192802
-8.82679352241e-08
1.15894255069e-06
0.000889283601929
-5.09579443398e-07
1.25873213327e-06
0.000889133735965
-4.83839211962e-07
5.13240449202e-07
0.000889227863613
-3.95285220404e-07
3.59983976009e-07
0.000889200100278
-3.53959279588e-07
2.6412990593e-07
0.000889265077915
-2.79488794687e-07
1.59508321135e-07
0.000889237638697
-2.36180659896e-07
1.26904091892e-07
0.000889249957235
-1.88109619515e-07
7.98845194522e-08
0.000889279212126
-1.52867486601e-07
6.34979467832e-08
0.000889257240805
-1.19750160249e-07
4.32000961286e-08
0.000889259157552
-9.21577626853e-08
3.48546540133e-08
0.000889286254418
-6.68288562562e-08
2.63054676662e-08
0.000889252235886
-4.3601928112e-08
2.29606161552e-08
0.000889214693312
-2.13091455826e-08
2.07094998633e-08
0.000889022881999
1.96692605603e-08
0.000885954926243
-6.87254108686e-07
2.5033723586e-07
0.000889123030619
-9.00254553737e-07
1.32460206198e-06
0.00088921509881
-6.76203564144e-07
7.38352591472e-07
0.00088909229839
-6.12782830894e-07
3.09939301496e-07
0.000889220436165
-4.45271275682e-07
2.32843743524e-07
0.000889231252957
-3.74064031805e-07
1.25006035135e-07
0.00088924765792
-2.79656897577e-07
9.54814530306e-08
0.000889246039657
-2.27329455746e-07
5.73528065296e-08
0.000889286838553
-1.73192395728e-07
4.35898649633e-08
0.00088926164061
-1.36452721146e-07
2.89574218096e-08
0.000889266615133
-1.01793502163e-07
2.26880824179e-08
0.000889293006003
-7.41233434721e-08
1.68390211989e-08
0.00088925979829
-4.79420399397e-08
1.4486010112e-08
0.000889222132257
-2.36260095079e-08
1.30161604207e-08
0.000889030547897
1.23346011998e-08
0.000885962592372
-1.87290843071e-07
3.71056240189e-11
1.25325737602e-07
-1.25482326164e-06
2.61242665067e-07
0.00088911119135
-1.32161017616e-06
5.85954376425e-07
0.000889212291558
-5.87553341268e-07
-1.68335947157e-07
0.000889139459973
-5.36161078414e-07
2.22262335683e-07
0.000889260856663
-3.79833473834e-07
4.44789695293e-08
0.000889234986696
-3.07602212176e-07
6.56357316607e-08
0.000889254071248
-2.3418514674e-07
2.32409502245e-08
0.000889285883956
-1.83562663263e-07
2.24012903941e-08
0.000889265131523
-1.40720821942e-07
1.11090147509e-08
0.000889268160729
-1.06111940262e-07
9.40911285054e-09
0.000889295581992
-7.63181489664e-08
5.9213573846e-09
0.000889261959799
-4.94522991188e-08
5.14605775514e-09
0.000889224522124
-2.41423294359e-08
4.4670273175e-09
0.000889032815578
4.41457756161e-09
0.000885964844858
-3.01753390659e-11
1.05951571e-09
-2.27263053305e-07
1.66289038162e-07
-1.03872891315e-06
0.000889148227217
-1.10218420866e-06
0.000889226070214
-6.13761914586e-07
0.00088919237311
-4.9765526465e-07
0.000889240521994
-3.33311551357e-07
0.00088923762376
-2.62761770061e-07
0.000889284362452
-1.92118234017e-07
0.000889259534287
-1.48941635794e-07
0.000889265665593
-1.09440790689e-07
0.000889292224951
-7.9147089849e-08
0.000889259270534
-5.09164252647e-08
0.000889221657001
-2.50134427877e-08
0.000889030123051
0.000885962178096
-1.91196937349e-08
2.66319697231e-08
0.000885943906235
-2.75181390547e-08
2.52972138506e-08
0.000885947024108
-3.45669489766e-08
2.37318760485e-08
0.000885945014859
-3.96096454919e-08
2.11693890658e-08
0.000885937962341
-4.29959240209e-08
1.93198299683e-08
0.000885965533002
-4.42353427013e-08
1.64766931128e-08
0.000885940110575
-4.38934480824e-08
1.47734785737e-08
0.000885941234558
-4.17673839446e-08
1.23073714532e-08
0.000885968972668
-3.83197917967e-08
1.093613857e-08
0.000885943464778
-3.36113726632e-08
9.11706956579e-09
0.000885944451482
-2.7907464215e-08
8.11882129003e-09
0.000885971886782
-2.14603080599e-08
7.00093051299e-09
0.00088594583673
-1.44054231661e-08
6.40505154445e-09
0.000885942184159
-7.28194809244e-09
6.1607846647e-09
0.00088585248037
5.97326921563e-09
0.000882049436026
-1.94683856072e-08
5.29977862476e-08
0.000889011911096
-2.82927175504e-08
5.10854380572e-08
0.000889014685771
-3.5582085687e-08
4.73451422197e-08
0.000889012983691
-4.08838142151e-08
4.26821033813e-08
0.000889005661985
-4.43976745707e-08
3.85246192244e-08
0.000889033568252
-4.56692794176e-08
3.30510286803e-08
0.000889007932319
-4.531032702e-08
2.93591141045e-08
0.0008890092225
-4.30557044972e-08
2.45085362425e-08
0.000889037013657
-3.94920713887e-08
2.16146732712e-08
0.000889011509473
-3.45774388852e-08
1.8002016365e-08
0.000889012461948
-2.87219080869e-08
1.59539275585e-08
0.000889039756735
-2.20764633542e-08
1.37381935319e-08
0.000889011494092
-1.49784917388e-08
1.26441104921e-08
0.000888994215563
-7.6402700637e-09
1.20229462938e-08
0.000888869428752
1.157844217e-08
0.000885852503523
-2.27684267443e-08
8.38726074781e-08
0.000889201956021
-3.26752624864e-08
7.9161801942e-08
0.000889205316656
-4.06766381221e-08
7.38095650525e-08
0.000889203451861
-4.6162803449e-08
6.52325476438e-08
0.000889196694733
-4.94806004979e-08
5.89706812203e-08
0.000889224570295
-5.0416053605e-08
4.98370270243e-08
0.000889199350188
-4.94503878136e-08
4.41875599722e-08
0.000889200663797
-4.66705453386e-08
3.65050446476e-08
0.000889228729037
-4.24478345562e-08
3.20728947944e-08
0.000889203235829
-3.70092187939e-08
2.65195279782e-08
0.000889204193555
-3.0606045541e-08
2.34192234321e-08
0.00088923061909
-2.35259429164e-08
2.00975631658e-08
0.000889198238968
-1.60386432306e-08
1.855146656e-08
0.000889167014862
-8.16508221618e-09
1.75280031794e-08
0.000888994218422
1.68777398571e-08
0.000885942217724
-2.31286655678e-08
1.11504044033e-07
0.000889239905168
-3.40550159789e-08
1.0846798542e-07
0.000889242135885
-4.27044686018e-08
9.83087295388e-08
0.000889241208766
-4.86446443362e-08
8.84515245477e-08
0.000889233740213
-5.23974594109e-08
7.82557612929e-08
0.000889262275635
-5.32410197058e-08
6.66515949408e-08
0.000889236730364
-5.23506342277e-08
5.82274742053e-08
0.000889238443374
-4.92099678147e-08
4.81711597844e-08
0.000889266409132
-4.48039544328e-08
4.19127242963e-08
0.000889241118339
-3.89388575506e-08
3.45904196301e-08
0.000889241988762
-3.2236996287e-08
3.03732169708e-08
0.00088926813156
-2.47562140281e-08
2.60105161142e-08
0.000889234227335
-1.6896592256e-08
2.39853309625e-08
0.000889198327882
-8.59370879554e-09
2.25225866215e-08
0.000889011581959
2.15900764077e-08
0.000885945961532
-3.40524193444e-08
1.55715474717e-07
0.000889267903838
-4.80492586269e-08
1.44355600108e-07
0.000889272424573
-5.86723804039e-08
1.32937062741e-07
0.000889270793556
-6.46493969524e-08
1.14104261926e-07
0.000889265394095
-6.74725593046e-08
1.02015791339e-07
0.000889293672465
-6.699411498e-08
8.37318682147e-08
0.000889269569296
-6.4120381029e-08
7.35125517302e-08
0.000889271270193
-5.93446022307e-08
5.92250412569e-08
0.000889300105267
-5.29708201469e-08
5.15754871952e-08
0.000889274888518
-4.56064513452e-08
4.18024026676e-08
0.000889276207488
-3.72983260089e-08
3.6659618114e-08
0.000889302307195
-2.85280575094e-08
3.10495681945e-08
0.000889268138788
-1.93787160534e-08
2.86108771814e-08
0.000889230750892
-9.85007011984e-09
2.6676244665e-08
0.000889039872986
2.5499072597e-08
0.000885972046771
-3.30137117097e-08
1.87927149271e-07
0.000889243485541
-4.99802130126e-08
1.8473698872e-07
0.000889243522162
-6.24020804372e-08
1.60974380532e-07
0.000889245244405
-6.94466058049e-08
1.42161936615e-07
0.000889237099674
-7.36343489601e-08
1.22304677133e-07
0.000889267567025
-7.27102467407e-08
1.01131929892e-07
0.000889242214495
-7.0232419588e-08
8.67369778308e-08
0.000889245122488
-6.44715172661e-08
6.96133976335e-08
0.000889273526629
-5.78028746985e-08
5.97929933433e-08
0.000889248913741
-4.94110201232e-08
4.80654371957e-08
0.000889250134463
-4.04632348794e-08
4.18006997656e-08
0.000889276479013
-3.07502424878e-08
3.51187741399e-08
0.000889242186561
-2.07792826782e-08
3.22300894625e-08
0.000889204508236
-1.0464574141e-08
2.99182493636e-08
0.000889012744479
2.85345045711e-08
0.000885944779892
-6.34937758741e-08
2.63169612432e-07
0.000889224859293
-8.47597869678e-08
2.3433900032e-07
0.000889233411832
-9.95037875158e-08
2.11205673508e-07
0.000889232001403
-1.04389232526e-07
1.70827311788e-07
0.000889230627672
-1.04322489003e-07
1.50459163855e-07
0.000889259561534
-9.9779060166e-08
1.16769851136e-07
0.000889238270746
-9.19913532282e-08
1.01333763562e-07
0.000889240655725
-8.2847279047e-08
7.7922893007e-08
0.000889271187748
-7.18860466101e-08
6.71676598094e-08
0.000889246509813
-6.0784017155e-08
5.24957585607e-08
0.000889248765203
-4.8808996644e-08
4.56034705394e-08
0.000889275179252
-3.69707213377e-08
3.76600396177e-08
0.000889241319415
-2.48485889549e-08
3.4490590776e-08
0.000889203626229
-1.25481568108e-08
3.1735552208e-08
0.000889011838876
3.01570141977e-08
0.00088594385652
-5.35950498397e-08
3.01049038255e-07
0.000889259448106
-8.34962907581e-08
3.00031289004e-07
0.000889251514267
-1.02929680529e-07
2.43946525161e-07
0.000889261267774
-1.09301772263e-07
2.06525584038e-07
0.000889250548767
-1.13202054352e-07
1.70941429243e-07
0.000889285988371
-1.06825871601e-07
1.3338613184e-07
0.000889260724547
-1.00658403269e-07
1.1214233004e-07
0.000889266208098
-8.93315452841e-08
8.51732123054e-08
0.000889295364817
-7.84194866295e-08
7.22599073543e-08
0.000889272026827
-6.55581490225e-08
5.55120979518e-08
0.000889273906852
-5.29013546081e-08
4.77825697824e-08
0.000889300868086
-3.96989180286e-08
3.88730752072e-08
0.000889266939216
-2.65510748955e-08
3.54269251544e-08
0.000889229411354
-1.32383471748e-08
3.24010249712e-08
0.00088903760544
3.07599157763e-08
0.000885969618445
-1.48896581243e-07
4.46208630117e-07
0.000889181790746
-1.70310631939e-07
3.56470368765e-07
0.000889206033727
-1.84397505937e-07
3.1641498279e-07
0.000889203233226
-1.79651664973e-07
2.2888196525e-07
0.000889214092317
-1.67978352001e-07
2.00244699118e-07
0.000889242974035
-1.53614005419e-07
1.41601597595e-07
0.00088922847507
-1.34555631686e-07
1.22066359929e-07
0.000889231467692
-1.17578255612e-07
8.7313941431e-08
0.000889265390568
-9.83751135916e-08
7.46595331354e-08
0.000889241353441
-8.15772704252e-08
5.52864442779e-08
0.000889245231817
-6.40292614088e-08
4.75756185844e-08
0.000889272100784
-4.80144399067e-08
3.78751819799e-08
0.000889238961364
-3.18883068649e-08
3.44365904182e-08
0.000889201468106
-1.60040921657e-08
3.11419335831e-08
0.000889009879599
2.94045221585e-08
0.000885941985642
-1.12523171958e-07
4.81640928664e-07
0.00088921759743
-1.61361490441e-07
4.73423243362e-07
0.000889180480959
-1.88721047062e-07
3.46315505858e-07
0.000889217375806
-1.81417084915e-07
2.68396516333e-07
0.000889198194279
-1.81762210428e-07
2.16092737852e-07
0.00088924645138
-1.60051901103e-07
1.51069889657e-07
0.00088922066012
-1.46200811206e-07
1.26771114597e-07
0.000889231317227
-1.24166965668e-07
8.74991284141e-08
0.000889261654914
-1.06215085506e-07
7.4277572113e-08
0.000889240393976
-8.64924872418e-08
5.30908965869e-08
0.000889243286822
-6.85791457717e-08
4.55232129824e-08
0.000889271127445
-5.0786511736e-08
3.52983447002e-08
0.000889237771422
-3.36242806504e-08
3.19941602366e-08
0.00088920056853
-1.66227562217e-08
2.86491841023e-08
0.000889008959873
2.7076595716e-08
0.000885941195273
-5.00263421297e-07
7.77560779298e-07
0.000889075005108
-3.86002326272e-07
3.82595410716e-07
0.000889183781092
-3.5383002452e-07
4.15814465362e-07
0.00088916924124
-3.14357193209e-07
2.49651284892e-07
0.000889218208746
-2.65717669595e-07
2.28927318736e-07
0.000889241822136
-2.33063365915e-07
1.40454454255e-07
0.000889243089066
-1.90767543895e-07
1.22527951079e-07
0.000889245260069
-1.62218666155e-07
7.89078627809e-08
0.000889285421266
-1.29854013123e-07
6.74657748851e-08
0.000889261757828
-1.05781776076e-07
4.63813432859e-08
0.00088926812075
-8.08864044321e-08
3.96822027393e-08
0.000889295422152
-6.01103219399e-08
3.0089868164e-08
0.000889263251851
-3.94016731198e-08
2.71837697679e-08
0.000889225981484
-1.96728131917e-08
2.40153950622e-08
0.000889034671099
2.24957192532e-08
0.000885966784557
-8.94434349596e-09
7.19246963647e-07
0.000889288061725
-3.4544750022e-07
8.65725335963e-07
0.000889053907096
-3.774175519e-07
4.12348443233e-07
0.000889192977705
-3.02144922417e-07
2.52760406098e-07
0.000889149822295
-2.92853840696e-07
2.31035892197e-07
0.000889228623775
-2.34101633477e-07
1.24532832179e-07
0.000889201883229
-2.06206233878e-07
1.15507415798e-07
0.000889221061008
-1.66489937133e-07
6.56699269143e-08
0.000889253533426
-1.38067221113e-07
5.87795333551e-08
0.000889234908346
-1.09480442312e-07
3.70183665405e-08
0.000889239317138
-8.50526933253e-08
3.23842092133e-08
0.000889268103205
-6.22480037975e-08
2.32801603735e-08
0.000889235489858
-4.0799497685e-08
2.11452279298e-08
0.000889198613991
-2.00571915386e-08
1.83058889861e-08
0.00088900723571
1.72141101762e-08
0.000885939584031
-4.33967437038e-07
1.1309615913e-07
0.000888588025898
-6.40040522542e-07
9.20950397132e-07
0.000889248648176
-5.39659155461e-07
4.78433966734e-07
0.000889026401286
-5.0343379591e-07
1.97951006108e-07
0.000889184459082
-3.75022587078e-07
1.89721821665e-07
0.000889181570516
-3.28444052374e-07
9.32882904661e-08
0.000889214102804
-2.47734737077e-07
8.20545077953e-08
0.00088921144838
-2.07587490889e-07
4.48774622903e-08
0.000889261024178
-1.58470390656e-07
3.85596303751e-08
0.000889237025158
-1.27452804668e-07
2.36710294104e-08
0.000889246369375
-9.50163255972e-08
2.02860045252e-08
0.00088927393643
-7.01247465904e-08
1.42720153904e-08
0.000889242753667
-4.53951909523e-08
1.28467851259e-08
0.000889205653999
-2.25706774619e-08
1.08690417933e-08
0.000889014623987
9.99964132767e-09
0.000885946887787
-1.65691908547e-07
7.37205575104e-09
0.000444606557115
-9.04711661889e-07
1.60083515796e-07
0.00088844973708
-9.21038649605e-07
3.27269864665e-07
0.000889253754786
-4.52954102264e-07
-1.63644733323e-07
0.000889087332586
-4.41305027937e-07
1.91397504114e-07
0.000889214479282
-3.17399016088e-07
1.96822417406e-08
0.000889194478717
-2.65917507245e-07
5.76637540399e-08
0.000889220050624
-2.06762115325e-07
1.41227228915e-08
0.000889258023937
-1.64662185002e-07
1.94629545256e-08
0.000889240592474
-1.2843580679e-07
7.46027043639e-09
0.000889247293836
-9.74550123353e-08
7.86615338341e-09
0.000889276496684
-7.09086501368e-08
4.14744858321e-09
0.000889244721786
-4.60345376122e-08
3.977433532e-09
0.000889208006769
-2.26228985677e-08
2.83960939425e-09
0.00088901684878
2.52608114197e-09
0.000885949199277
-7.37649302169e-09
9.22373667769e-08
-1.17180616599e-07
0.000444636820496
-7.27297890569e-07
0.000888586155278
-8.25207070535e-07
0.000889215677826
-4.78529839394e-07
0.000889136231155
-4.13158001756e-07
0.000889207463431
-2.82814037725e-07
0.000889200857743
-2.32622281851e-07
0.000889257955758
-1.71537425841e-07
0.000889234081565
-1.36509449815e-07
0.000889245027207
-1.00466136287e-07
0.000889272827983
-7.37636131166e-08
0.000889242042103
-4.74277795249e-08
0.000889205033483
-2.34789255763e-08
0.000889014118064
0.000885946446089
-1.81394835513e-08
2.46475852616e-08
0.000885928540163
-2.57940631924e-08
2.31187176302e-08
0.000885931997529
-3.22804735898e-08
2.19171983697e-08
0.000885930105875
-3.6960038466e-08
1.95279162469e-08
0.000885923545348
-4.00033387924e-08
1.77578088549e-08
0.000885951331661
-4.11686052024e-08
1.52472497352e-08
0.000885926455257
-4.07228978366e-08
1.34691975383e-08
0.000885927821294
-3.87192439514e-08
1.13246911661e-08
0.000885956070845
-3.53934328908e-08
9.84904647295e-09
0.00088593077928
-3.09613396854e-08
8.26914440782e-09
0.000885932181838
-2.55811735635e-08
7.20451975005e-09
0.000885959779884
-1.95672068643e-08
6.24919811249e-09
0.000885934014472
-1.30387982378e-08
5.6628587128e-09
0.000885930461272
-6.55356520916e-09
5.54443216624e-09
0.000885840900175
5.41624287662e-09
0.000882037920901
-1.8885002165e-08
5.00661182957e-08
0.000888996138395
-2.70476260947e-08
4.71530623747e-08
0.000888999242615
-3.37984081279e-08
4.43526973871e-08
0.000888997741643
-3.86876219376e-08
3.95957209636e-08
0.000888990904201
-4.17750444786e-08
3.57435468238e-08
0.000889019118175
-4.28985715327e-08
3.0710668081e-08
0.000888994007123
-4.23506684739e-08
2.69745236437e-08
0.00088899562273
-4.01670077595e-08
2.2675427031e-08
0.000889023893663
-3.66705683666e-08
1.96462643869e-08
0.000888998672316
-3.20050003491e-08
1.64765746084e-08
0.000889000009914
-2.64377660792e-08
1.43357861292e-08
0.000889027515011
-2.01903479438e-08
1.24156164115e-08
0.000888999512635
-1.35595959355e-08
1.13360272394e-08
0.000888982361204
-6.83712892966e-09
1.09423970542e-08
0.000888857736518
1.05965740274e-08
0.00088584093446
-2.0623035092e-08
7.7015403987e-08
0.000889185757955
-2.95665174416e-08
7.23091721835e-08
0.000889189376692
-3.6847539895e-08
6.78115132301e-08
0.000889187803168
-4.19850605938e-08
6.02339369602e-08
0.000889181497
-4.50805975888e-08
5.41651156379e-08
0.000889209767343
-4.60642326911e-08
4.63083057823e-08
0.000889185071679
-4.52244389854e-08
4.05154035699e-08
0.000889186788388
-4.27217978641e-08
3.39222593629e-08
0.000889215344061
-3.88420250072e-08
2.92911958706e-08
0.000889190194807
-3.38171456502e-08
2.44938689698e-08
0.000889191540403
-2.78851687178e-08
2.12702993972e-08
0.000889218215966
-2.13063349651e-08
1.8396534696e-08
0.000889186088559
-1.4365380717e-08
1.6840271196e-08
0.000889155002404
-7.21261466123e-09
1.60926543649e-08
0.000888982373832
1.55579634957e-08
0.000885930517517
-2.29709460789e-08
1.06306786103e-07
0.000889222505177
-3.31337170086e-08
9.98596466071e-08
0.000889225261246
-4.11215022407e-08
9.26051805874e-08
0.000889224638412
-4.65974266144e-08
8.20600320513e-08
0.000889217851089
-4.97062288782e-08
7.29687221508e-08
0.000889246848107
-5.04165952488e-08
6.21901083308e-08
0.000889221976686
-4.92121970496e-08
5.39020748136e-08
0.000889224169819
-4.61845187182e-08
4.49837812287e-08
0.000889252714618
-4.18157562998e-08
3.85710523094e-08
0.00088922783328
-3.62405596055e-08
3.21534269585e-08
0.000889229145704
-2.98266899311e-08
2.78003133178e-08
0.000889255582585
-2.27498987593e-08
2.39888196906e-08
0.000889221957139
-1.53352039575e-08
2.19335253221e-08
0.000889186215492
-7.69920207961e-09
2.0823408196e-08
0.00088899965092
2.00533600548e-08
0.000885934207548
-2.88508582751e-08
1.40929669284e-07
0.000889249349886
-4.14901462474e-08
1.30921502353e-07
0.000889254118171
-5.11815281654e-08
1.20890512568e-07
0.000889253060481
-5.72230486137e-08
1.05418670802e-07
0.000889248284158
-6.02063900294e-08
9.31922735962e-08
0.000889277246753
-6.02712418416e-08
7.82044301769e-08
0.000889253908663
-5.8008161228e-08
6.73729366993e-08
0.000889256253653
-5.38730908246e-08
5.55034386675e-08
0.00088928579982
-4.8225057861e-08
4.73241370325e-08
0.000889261105738
-4.15072560289e-08
3.90546958746e-08
0.000889262979667
-3.39181848911e-08
3.36078482947e-08
0.000889289449052
-2.5794690925e-08
2.87970660652e-08
0.000889255627678
-1.73449962311e-08
2.62661312258e-08
0.000889218426469
-8.70775903976e-09
2.48110131426e-08
0.000889027718559
2.38345744631e-08
0.000885960041968
-3.53967656595e-08
1.82637194054e-07
0.000889221214448
-5.0995923526e-08
1.67978862814e-07
0.000889222907381
-6.20504891218e-08
1.52331613474e-07
0.000889224971424
-6.84881193147e-08
1.3119145754e-07
0.000889218434294
-7.10934126918e-08
1.13857695439e-07
0.000889249607186
-7.01611486212e-08
9.44654144095e-08
0.00088922554969
-6.68404390009e-08
8.01367713685e-08
0.000889229223493
-6.13266558241e-08
6.53538860467e-08
0.000889258601739
-5.45105109659e-08
5.50735649814e-08
0.000889234630459
-4.64999705532e-08
4.50398004735e-08
0.000889236540266
-3.78257513189e-08
3.84262233631e-08
0.000889263338199
-2.85924629425e-08
3.26820978227e-08
0.000889229462171
-1.91311242131e-08
2.96725451479e-08
0.000889192011548
-9.54791583447e-09
2.79446659143e-08
0.000889000457234
2.68065068289e-08
0.00088593269314
-4.83201717519e-08
2.32784686454e-07
0.000889202389604
-6.8730971493e-08
2.11016448581e-07
0.000889210481779
-8.27797449297e-08
1.88746886134e-07
0.000889210650574
-8.94994706454e-08
1.58634166125e-07
0.000889209844629
-9.10750557483e-08
1.35823571665e-07
0.000889240258383
-8.82984949262e-08
1.10037566796e-07
0.000889220055277
-8.24472724833e-08
9.22374568282e-08
0.000889223642398
-7.46392710666e-08
7.3742721856e-08
0.000889255259524
-6.52776077768e-08
6.15145282653e-08
0.00088923146221
-5.52116085823e-08
4.95303917602e-08
0.000889234563128
-4.44628925424e-08
4.19016146992e-08
0.000889261562471
-3.35225816049e-08
3.5242026581e-08
0.000889228227431
-2.23987939926e-08
3.1831971486e-08
0.000889190815401
-1.12063126919e-08
2.98338396111e-08
0.000888999231946