/*--------------------------------*- C++ -*----------------------------------*\
| =========                 |                                                 |
| \\      /  F ield         | OpenFOAM: The Open Source CFD Toolbox           |
|  \\    /   O peration     | Version:  2406                                  |
|   \\  /    A nd           | Website:  www.openfoam.com                      |
|    \\/     M anipulation  |                                                 |
\*---------------------------------------------------------------------------*/
FoamFile
{
    version     2.0;
    format      ascii;
    arch        "LSB;label=32;scalar=64";
    class       volVectorField;
    location    "0.01";
    object      U;
}
// * * * * * * * * * * * * * * * * * * * * * * * * * * * * * * * * * * * * * //

dimensions      [0 1 -1 0 0 0 0];

internalField   nonuniform List<vector> 
29768
(
(-8.04763159989e-06 4.85969730904e-06 0.797385624871)
(-1.35312317391e-05 5.78870028121e-06 0.79738593945)
(-1.75063941142e-05 4.53818453395e-06 0.797386024301)
(-2.14913510659e-05 5.00357423469e-06 0.797386450961)
(-2.32864841967e-05 3.90489058805e-06 0.797386885308)
(-2.52159742414e-05 3.98619958518e-06 0.797387364471)
(-2.47534594367e-05 3.14916317359e-06 0.797388041286)
(-2.46772665447e-05 3.02154444746e-06 0.797388519269)
(-2.23514485106e-05 2.44694240598e-06 0.797389294248)
(-2.06304757817e-05 2.26331646809e-06 0.797389721496)
(-1.69890579894e-05 1.90593353122e-06 0.797390422195)
(-1.40891839761e-05 1.76811087067e-06 0.797390596905)
(-9.69729560287e-06 1.57950534873e-06 0.797387305449)
(-6.17115150216e-06 1.56543592024e-06 0.797282534062)
(-1.80984998073e-06 1.51117761024e-06 0.793883618316)
(-8.4310725141e-06 2.58198465861e-05 0.800122583807)
(-1.39236163121e-05 2.30596539065e-05 0.800122774461)
(-1.85636138752e-05 2.26534685605e-05 0.800122944022)
(-2.22677719566e-05 1.92271489616e-05 0.800123298893)
(-2.46498709855e-05 1.80130384495e-05 0.800123747809)
(-2.6113811405e-05 1.48121200038e-05 0.800124205432)
(-2.60775083248e-05 1.33997331865e-05 0.800124837448)
(-2.54871590873e-05 1.08726148362e-05 0.800125333043)
(-2.34407817267e-05 9.62773314077e-06 0.800126024271)
(-2.12398177108e-05 7.86813873327e-06 0.800126456339)
(-1.77640904141e-05 6.94542722854e-06 0.800126816504)
(-1.44524531242e-05 5.91523348823e-06 0.800125112721)
(-1.01481264322e-05 5.42932896988e-06 0.800109513973)
(-6.35783055352e-06 5.2720637115e-06 0.799973309134)
(-1.94649190036e-06 5.1768558298e-06 0.797282523757)
(-9.39774507323e-06 3.61587613775e-05 0.800318809692)
(-1.56240204657e-05 3.59380588128e-05 0.800319070481)
(-2.0601559268e-05 3.2280645468e-05 0.800319165616)
(-2.46844397871e-05 3.01228463465e-05 0.8003195971)
(-2.69579015767e-05 2.61578827142e-05 0.800319974351)
(-2.84583895894e-05 2.32393741492e-05 0.80032050861)
(-2.81411771527e-05 1.98332255999e-05 0.800321070957)
(-2.73671232163e-05 1.70856195524e-05 0.800321632668)
(-2.50436615967e-05 1.45379309552e-05 0.800322230908)
(-2.25631664765e-05 1.24165001296e-05 0.800322569176)
(-1.8869781385e-05 1.07258605897e-05 0.800322047373)
(-1.5264078393e-05 9.41737479426e-06 0.800316619235)
(-1.07929955758e-05 8.62517196311e-06 0.800288510884)
(-6.7285201731e-06 8.25750662113e-06 0.800109525506)
(-2.05092571974e-06 7.90805425711e-06 0.797387320105)
(-1.02889587044e-05 6.12002755069e-05 0.800352886506)
(-1.69018684386e-05 5.55546856872e-05 0.800353010284)
(-2.31402458157e-05 5.31004544321e-05 0.800353245099)
(-2.69371188883e-05 4.55793644069e-05 0.800353597803)
(-3.00413969523e-05 4.15712264929e-05 0.800354072653)
(-3.09046486035e-05 3.45180141295e-05 0.800354576617)
(-3.09078449674e-05 3.05072250296e-05 0.800355186152)
(-2.94775186549e-05 2.49840694738e-05 0.800355744039)
(-2.71406412689e-05 2.17279526886e-05 0.800356345696)
(-2.4119232383e-05 1.79039641016e-05 0.800356624556)
(-2.02570190147e-05 1.56294806257e-05 0.800355747092)
(-1.62325233929e-05 1.34109873467e-05 0.800348946392)
(-1.15365475659e-05 1.23119093033e-05 0.800316607026)
(-7.10435289618e-06 1.16811095969e-05 0.800125102393)
(-2.21573592592e-06 1.13079583651e-05 0.797390570719)
(-1.35955533283e-05 7.19938436475e-05 0.800359526821)
(-2.30020607209e-05 7.17484047723e-05 0.800360156901)
(-2.96601381994e-05 6.31758199794e-05 0.800360016675)
(-3.51146933494e-05 5.83889379201e-05 0.800360794983)
(-3.69392074035e-05 4.97433747769e-05 0.800361062704)
(-3.84111994533e-05 4.35597520627e-05 0.800361845119)
(-3.67074904837e-05 3.66179327352e-05 0.80036235986)
(-3.52296566229e-05 3.10852331772e-05 0.800363071884)
(-3.13956134998e-05 2.61526003888e-05 0.800363631277)
(-2.80384348267e-05 2.20520693978e-05 0.800363967446)
(-2.30203104155e-05 1.88953269204e-05 0.800362965798)
(-1.85903837061e-05 1.64312218488e-05 0.800355760877)
(-1.29800905284e-05 1.49797584095e-05 0.800322048515)
(-8.15704997939e-06 1.41338722874e-05 0.800126834704)
(-2.42153150233e-06 1.34546156125e-05 0.797390453433)
(-1.55306026125e-05 0.000111773930159 0.800360354)
(-2.55328067398e-05 9.80323756301e-05 0.800360346997)
(-3.62073498902e-05 9.30687312875e-05 0.800360870559)
(-4.00206196448e-05 7.65882931925e-05 0.800361254034)
(-4.45021045826e-05 6.90299706641e-05 0.800361981729)
(-4.36650506988e-05 5.52804547185e-05 0.800362574583)
(-4.3046210901e-05 4.81996655606e-05 0.800363325573)
(-3.96380742834e-05 3.84035309583e-05 0.800363966529)
(-3.59239675968e-05 3.2963185896e-05 0.80036462337)
(-3.11985333428e-05 2.66296144202e-05 0.800364932907)
(-2.58756454135e-05 2.29901724991e-05 0.800363934261)
(-2.04811859217e-05 1.94646364542e-05 0.800356611554)
(-1.443176987e-05 1.77557585543e-05 0.800322542165)
(-8.82328177946e-06 1.66620143737e-05 0.800126430215)
(-2.72646092251e-06 1.6015454546e-05 0.797389671889)
(-2.52732439335e-05 0.000120310576684 0.800357701753)
(-4.18522750443e-05 0.000123641663792 0.800359514504)
(-5.11005110853e-05 0.000102311629926 0.800358703192)
(-5.90866623812e-05 9.42436205209e-05 0.800360582743)
(-5.81588308091e-05 7.61317131405e-05 0.800360619396)
(-5.9149504694e-05 6.54953712355e-05 0.800362082808)
(-5.34991278129e-05 5.29829846861e-05 0.800362547534)
(-5.0389941779e-05 4.39935105288e-05 0.800363610298)
(-4.31146771607e-05 3.6028360328e-05 0.800364166462)
(-3.80096364754e-05 2.97329725313e-05 0.800364659351)
(-3.03562382788e-05 2.49907404162e-05 0.800363625932)
(-2.44168002897e-05 2.13509542843e-05 0.800356360012)
(-1.67485427344e-05 1.92545985114e-05 0.800322228511)
(-1.06104837148e-05 1.80404174594e-05 0.800126048196)
(-3.03132904325e-06 1.71260960301e-05 0.797389344072)
(-2.82311855081e-05 0.000200848476412 0.800356910841)
(-4.44867114827e-05 0.000161420825092 0.800355966296)
(-6.59247246137e-05 0.0001535541366 0.800357892464)
(-6.62793084974e-05 0.000114813184937 0.800358139486)
(-7.32537813756e-05 0.000102696526617 0.800359948222)
(-6.67993506288e-05 7.62303283988e-05 0.800360644381)
(-6.45317014505e-05 6.55655909429e-05 0.800361912542)
(-5.65788129997e-05 4.94416652175e-05 0.800362682611)
(-5.0184082391e-05 4.17568976537e-05 0.800363542818)
(-4.22874003126e-05 3.2447701222e-05 0.80036394276)
(-3.44949186647e-05 2.7571793875e-05 0.800363008923)
(-2.69004499992e-05 2.27475886801e-05 0.800355712195)
(-1.87891160933e-05 2.05339596413e-05 0.800321584035)
(-1.14355130438e-05 1.90583427783e-05 0.800125284971)
(-3.4836594231e-06 1.82144868072e-05 0.797388438251)
(-6.80580781918e-05 0.000190754783834 0.800348695372)
(-9.31897341336e-05 0.000212137556225 0.800354017642)
(-9.90419515951e-05 0.000154357608277 0.800351199226)
(-0.000110320309665 0.000142553218616 0.800356725522)
(-9.68296810288e-05 0.000104625463056 0.800356244896)
(-9.6296920796e-05 8.77522085585e-05 0.800359637737)
(-8.02894348594e-05 6.68291394242e-05 0.800360054363)
(-7.41987316855e-05 5.36350802404e-05 0.800361935473)
(-6.0121800215e-05 4.22649924718e-05 0.800362527271)
(-5.22650420634e-05 3.37468172807e-05 0.800363345653)
(-4.03392368298e-05 2.76248565014e-05 0.800362339837)
(-3.22833914071e-05 2.29838088369e-05 0.800355192039)
(-2.17201691979e-05 2.04223647686e-05 0.800321063484)
(-1.38704161894e-05 1.89768876191e-05 0.800124865731)
(-3.80428332131e-06 1.79773875048e-05 0.797388113424)
(-7.76629023976e-05 0.000384010759296 0.800346777536)
(-9.48918810615e-05 0.000249849876071 0.800342162222)
(-0.000139803986334 0.000250011706537 0.800350687254)
(-0.00011717349835 0.000155175924966 0.800349920944)
(-0.000128334419182 0.000141266690614 0.800356159417)
(-0.000104658903538 9.19947893354e-05 0.800356795393)
(-9.86647062117e-05 7.87429063441e-05 0.800359680419)
(-8.11485970217e-05 5.44446715112e-05 0.800360592519)
(-7.00898218255e-05 4.52561174074e-05 0.800361976156)
(-5.70051401289e-05 3.32223918896e-05 0.800362506962)
(-4.55622992712e-05 2.77042259911e-05 0.800361736317)
(-3.49679776509e-05 2.20494027105e-05 0.800354512653)
(-2.41681744946e-05 1.96424580794e-05 0.800320430651)
(-1.46755370825e-05 1.79786965527e-05 0.800124129056)
(-4.38543196158e-06 1.70691960629e-05 0.797387244703)
(-0.000321060584447 0.000280247651988 0.800300149954)
(-0.000255360337453 0.000375415509502 0.800337287184)
(-0.000204425838596 0.000209390627439 0.800327936371)
(-0.000221789761725 0.000201013441063 0.800347850687)
(-0.00016070239485 0.000126765371214 0.800346853817)
(-0.000158986018108 0.000102527652003 0.800355696677)
(-0.000117883317203 7.25997558105e-05 0.800356170337)
(-0.000107696164952 5.50775168355e-05 0.800359835395)
(-8.136346993e-05 4.17257999792e-05 0.80036055145)
(-6.9897732922e-05 3.16264487001e-05 0.800361953336)
(-5.18288707981e-05 2.52197053947e-05 0.800361016257)
(-4.12725450337e-05 2.01748690897e-05 0.800354058146)
(-2.7192969829e-05 1.76482083584e-05 0.800319954314)
(-1.74830401117e-05 1.62169407302e-05 0.800123781868)
(-4.60997502013e-06 1.53757763562e-05 0.797386987681)
(0.000136751938122 0.000994034597313 0.800253732193)
(-0.00023309915403 0.000213528270908 0.8002847151)
(-0.000325432847855 0.000381163714323 0.800327158762)
(-0.000203969895159 0.000162496667629 0.800325446557)
(-0.000228028636535 0.000167736713847 0.8003499647)
(-0.000159186878352 8.83020585478e-05 0.800349947821)
(-0.000146237802882 7.7410860905e-05 0.800357066363)
(-0.000112056713235 4.72541701331e-05 0.800358016772)
(-9.35661684053e-05 3.87256921839e-05 0.800360424716)
(-7.3591224884e-05 2.64303824312e-05 0.800361121476)
(-5.73239960652e-05 2.15481296589e-05 0.800360614885)
(-4.34388725261e-05 1.6438428499e-05 0.800353489477)
(-2.95996398438e-05 1.44110485482e-05 0.800319475594)
(-1.80210887637e-05 1.29803210782e-05 0.800123192557)
(-5.237111413e-06 1.22152150345e-05 0.797386288885)
(-7.32860475995e-05 0.000273128505872 0.800216642405)
(-0.000678236264689 0.00116329575072 0.800189973125)
(-0.000306538929298 0.000181083772593 0.800257449323)
(-0.000434487041193 0.000231358765573 0.800324137368)
(-0.000236664876697 0.000121200988094 0.800326628869)
(-0.000250150109906 8.59790369698e-05 0.800349528263)
(-0.000159285550502 6.1439892553e-05 0.800350630223)
(-0.000146478291269 4.00286283608e-05 0.800357463368)
(-0.000102225184263 3.07295964322e-05 0.80035852542)
(-8.71484390693e-05 2.07762874614e-05 0.800360748394)
(-6.2094189593e-05 1.65609475007e-05 0.800359936901)
(-4.92093975712e-05 1.23058976346e-05 0.800353201724)
(-3.18274801639e-05 1.06815125526e-05 0.800319133521)
(-2.05327668813e-05 9.64963321493e-06 0.800122992949)
(-5.26084737313e-06 9.28169205142e-06 0.797386169034)
(-0 0 0)
(-0.000204418414471 0.000285313794067 0.800205080458)
(-0.00116823348486 0.000626375210466 0.800168705064)
(-0.000277334524527 0.000108228665332 0.800266049963)
(-0.000365469093519 0.00013358623481 0.800343325166)
(-0.000221535357272 5.06364571875e-05 0.800341036799)
(-0.000193352507167 4.29746914185e-05 0.800354414904)
(-0.000143081732687 2.26427680752e-05 0.800355594867)
(-0.000112898561159 1.69254817763e-05 0.800359119645)
(-8.78275564488e-05 1.08651631365e-05 0.800360123812)
(-6.60198240818e-05 8.2356416295e-06 0.800359846704)
(-5.00026059654e-05 6.09093200316e-06 0.800352853181)
(-3.34121976297e-05 5.14455173025e-06 0.800318892253)
(-2.05985014874e-05 4.56980508684e-06 0.800122644216)
(-5.75287819585e-06 4.19538269241e-06 0.797385735211)
(-0 0 -0)
(-0 0 0)
(-0.000247995573342 1.47576197176e-05 0.800254590427)
(-0.000888944095881 -0.000294434689002 0.800258550986)
(-0.000317458547804 0.000111655726571 0.800301577507)
(-0.000353886412195 -2.56874609338e-06 0.80033964242)
(-0.000191041401878 2.91436847479e-05 0.800345721736)
(-0.000173313909727 2.65327895499e-06 0.800355229816)
(-0.000114152354267 7.62312413189e-06 0.800357343874)
(-9.58928378792e-05 1.25002000966e-06 0.800360097023)
(-6.69972572456e-05 2.05522169072e-06 0.800359465952)
(-5.26587901193e-05 3.69273433624e-07 0.800352831452)
(-3.38636356032e-05 4.73972118217e-07 0.800318787048)
(-2.17421450655e-05 3.04309754204e-07 0.800122656839)
(-5.56406038556e-06 6.22566677081e-07 0.797385822976)
(-8.00522428349e-06 2.09209283263e-06 0.797364007667)
(-1.29153682975e-05 3.94773271146e-06 0.797364297889)
(-1.71891593881e-05 2.34659180388e-06 0.797364745495)
(-2.06225970302e-05 3.59559071882e-06 0.797365297752)
(-2.27022967298e-05 2.42389214974e-06 0.797366029794)
(-2.43246640182e-05 3.04250874163e-06 0.79736671742)
(-2.40558732133e-05 2.26901168295e-06 0.797367573771)
(-2.39499734483e-05 2.46082923949e-06 0.797368266904)
(-2.17292508752e-05 1.98068217576e-06 0.797369095843)
(-2.01790972269e-05 1.96720722001e-06 0.797369689608)
(-1.65789177003e-05 1.681124356e-06 0.797370354194)
(-1.39408828044e-05 1.61614164984e-06 0.79737062313)
(-9.52756368571e-06 1.45021614534e-06 0.797367263888)
(-6.22507244114e-06 1.42483211592e-06 0.797262494836)
(-1.73752438467e-06 1.32823654841e-06 0.793863555614)
(-8.22169084791e-06 2.70008547744e-05 0.800101701741)
(-1.30724548494e-05 2.36746251998e-05 0.80010175688)
(-1.78687598298e-05 2.35755024896e-05 0.800102405934)
(-2.10408082631e-05 1.95165227106e-05 0.800102819746)
(-2.36642369438e-05 1.86759633988e-05 0.800103699751)
(-2.48827296999e-05 1.49442444421e-05 0.80010434901)
(-2.50533424211e-05 1.38641045755e-05 0.800105298903)
(-2.44908552981e-05 1.0973058437e-05 0.80010601293)
(-2.25871898306e-05 9.96040802662e-06 0.800106887728)
(-2.05948433438e-05 7.98418063597e-06 0.800107493533)
(-1.72126987934e-05 7.18213500179e-06 0.800107923822)
(-1.41925757765e-05 6.02520282289e-06 0.800106311188)
(-9.94512707791e-06 5.54131070121e-06 0.800090654061)
(-6.42837138712e-06 5.30613625135e-06 0.799954087543)
(-1.92086852321e-06 5.20230232934e-06 0.797262506228)
(-9.53261534741e-06 3.08331595968e-05 0.80029770428)
(-1.53859445259e-05 3.21135824653e-05 0.800298182917)
(-2.03644820251e-05 2.80978816731e-05 0.800298710407)
(-2.41345455372e-05 2.70908822748e-05 0.800299537158)
(-2.63598044719e-05 2.33769052574e-05 0.800300383869)
(-2.77599821566e-05 2.11429920691e-05 0.800301341475)
(-2.73793742162e-05 1.81893524047e-05 0.800302295033)
(-2.67015840622e-05 1.57844858598e-05 0.800303210576)
(-2.43375589507e-05 1.36400340276e-05 0.80030407895)
(-2.20823255798e-05 1.166998609e-05 0.800304674268)
(-1.83892800377e-05 1.0237379253e-05 0.800304297655)
(-1.50788124519e-05 8.97396743616e-06 0.800298973772)
(-1.06402107942e-05 8.26512963592e-06 0.800270704231)
(-6.8811294263e-06 7.83300472343e-06 0.800090654296)
(-2.03489786468e-06 7.45595718841e-06 0.797367279817)
(-9.92726380715e-06 6.08718899279e-05 0.800332082296)
(-1.53433146218e-05 5.44214773236e-05 0.800331762024)
(-2.18709685082e-05 5.25993354874e-05 0.800332913604)
(-2.4796103013e-05 4.42039240018e-05 0.800333239059)
(-2.83637634262e-05 4.10912565765e-05 0.800334536125)
(-2.89051317795e-05 3.33173255514e-05 0.80033527185)
(-2.92846021731e-05 3.0115745665e-05 0.800336503781)
(-2.79393606179e-05 2.41021704936e-05 0.800337354578)
(-2.58503561212e-05 2.14186359335e-05 0.800338361525)
(-2.31278527591e-05 1.73057902121e-05 0.800338880132)
(-1.94379766465e-05 1.53580697951e-05 0.800338224719)
(-1.58029275645e-05 1.29847003102e-05 0.800331525067)
(-1.12518298681e-05 1.20072786371e-05 0.800299022646)
(-7.20150688071e-06 1.13261476133e-05 0.800106355494)
(-2.18030392016e-06 1.09958473796e-05 0.797370684652)
(-1.43549471751e-05 6.09652490763e-05 0.800334825002)
(-2.29516382895e-05 6.41788646762e-05 0.80033624455)
(-2.96574357479e-05 5.48401561161e-05 0.800336830322)
(-3.45691610237e-05 5.24955223296e-05 0.800338657197)
(-3.61808526861e-05 4.44464377913e-05 0.80033975481)
(-3.76464331634e-05 3.95386202508e-05 0.800341480078)
(-3.56484455068e-05 3.35393762272e-05 0.800342699913)
(-3.44932079129e-05 2.8546503179e-05 0.800344113634)
(-3.04212894171e-05 2.4403004387e-05 0.800345168093)
(-2.75157164996e-05 2.04994656644e-05 0.800345953446)
(-2.23660219033e-05 1.78455870999e-05 0.800345231509)
(-1.84253587703e-05 1.54430869415e-05 0.80033822315)
(-1.27657116593e-05 1.42102246547e-05 0.800304367845)
(-8.40301681551e-06 1.32930680996e-05 0.800107981237)
(-2.35266057076e-06 1.26076320037e-05 0.797370432884)
(-1.47217380345e-05 0.000109338786198 0.800337174467)
(-2.1290848994e-05 9.36498864024e-05 0.800335157674)
(-3.3276518376e-05 9.05405415852e-05 0.800338101629)
(-3.48710958195e-05 7.22293998016e-05 0.800337840573)
(-4.09768126175e-05 6.71091132457e-05 0.800340494391)
(-3.94748866831e-05 5.19747395906e-05 0.800341291106)
(-3.99622945476e-05 4.68451498946e-05 0.800343371102)
(-3.67902082497e-05 3.61770236578e-05 0.800344472124)
(-3.36622575394e-05 3.19898985188e-05 0.800345956868)
(-2.95150607133e-05 2.51851635167e-05 0.800346668065)
(-2.44877858955e-05 2.22328367025e-05 0.800346113664)
(-1.97394078546e-05 1.8490898922e-05 0.800338985381)
(-1.38601109321e-05 1.70638162225e-05 0.800304846494)
(-8.82972509367e-06 1.58654022492e-05 0.800107638286)
(-2.59252594107e-06 1.52688009097e-05 0.797369853864)
(-2.78296146269e-05 9.59156784286e-05 0.800323110614)
(-4.18112623875e-05 0.00010837533969 0.800328093548)
(-5.10460303029e-05 8.53474560207e-05 0.800328459518)
(-5.79289808593e-05 8.3196430319e-05 0.80033350489)
(-5.63498187991e-05 6.65679012546e-05 0.800334958267)
(-5.78225098725e-05 5.85684542081e-05 0.800338759897)
(-5.13649303541e-05 4.79782188782e-05 0.800340448177)
(-4.92759106608e-05 3.99031999729e-05 0.800343022309)
(-4.13607941897e-05 3.33823316221e-05 0.800344455744)
(-3.72700741465e-05 2.73451760775e-05 0.800345838871)
(-2.92193639661e-05 2.34652950034e-05 0.800345325165)
(-2.41637945834e-05 1.98905789891e-05 0.80033845472)
(-1.62623547792e-05 1.81664630482e-05 0.800304287864)
(-1.08815891729e-05 1.6836785094e-05 0.800107052743)
(-2.82124246615e-06 1.59263194084e-05 0.797369290346)
(-2.58750834225e-05 0.00019195512254 0.800331162003)
(-3.24098516278e-05 0.000147776309381 0.800322302599)
(-5.86389643587e-05 0.000145652689193 0.800331208575)
(-5.36938083839e-05 0.000103472590186 0.800328587278)
(-6.56008471072e-05 9.79718994977e-05 0.800334968966)
(-5.80482345792e-05 6.9017900426e-05 0.800335620939)
(-5.8610871431e-05 6.2832640221e-05 0.800339618082)
(-5.13723837775e-05 4.52357569876e-05 0.800341142999)
(-4.62192858713e-05 4.00606826059e-05 0.800343564115)
(-3.94790471717e-05 3.00169134991e-05 0.800344668789)
(-3.21577853899e-05 2.63912670279e-05 0.800344555473)
(-2.56571217692e-05 2.12636296285e-05 0.800337633456)
(-1.77138900423e-05 1.95335187901e-05 0.800303583958)
(-1.12745781618e-05 1.78498359725e-05 0.800106316089)
(-3.17332206828e-06 1.70413724817e-05 0.79736859167)
(-7.30183664575e-05 0.000136614406847 0.800286788511)
(-9.04974482167e-05 0.00018045536858 0.800307372431)
(-9.6149576064e-05 0.000120814708246 0.800305427738)
(-0.000105848272634 0.000122332519419 0.800321429132)
(-9.0861816254e-05 8.88576417238e-05 0.800322430397)
(-9.29700494384e-05 7.67617548932e-05 0.800331801061)
(-7.51465863543e-05 5.97727703501e-05 0.800333841027)
(-7.20477496745e-05 4.78334000292e-05 0.800338952372)
(-5.65916340516e-05 3.89480680909e-05 0.80034084069)
(-5.10046891619e-05 3.0642412564e-05 0.800343341763)
(-3.82309104427e-05 2.58490816583e-05 0.800343154214)
(-3.17942203504e-05 2.12160665658e-05 0.800336750644)
(-2.07084319872e-05 1.9190502546e-05 0.800302724893)
(-1.41223117362e-05 1.75640521397e-05 0.800105626883)
(-3.35472457555e-06 1.65856848243e-05 0.797367946514)
(-6.55998078126e-05 0.000351577791511 0.800324888104)
(-5.63308624538e-05 0.00020891491504 0.800288050175)
(-0.000119436138058 0.000225323639829 0.800319782378)
(-8.64962660454e-05 0.000127596070441 0.800309082114)
(-0.000111376083272 0.0001301498275 0.800326032231)
(-8.71753606238e-05 7.78761410142e-05 0.800325811455)
(-8.75488843859e-05 7.37177154669e-05 0.80033388008)
(-7.22008306908e-05 4.75311972487e-05 0.800336082014)
(-6.34254729822e-05 4.26893208824e-05 0.800340100655)
(-5.26489619535e-05 2.97534727193e-05 0.800341834039)
(-4.18570282295e-05 2.6163561224e-05 0.800342381484)
(-3.30918948449e-05 2.01659837347e-05 0.800335814509)
(-2.23915669005e-05 1.84483612199e-05 0.800302007855)
(-1.43188510002e-05 1.64706173886e-05 0.800104872599)
(-3.82236588825e-06 1.55576200055e-05 0.797367261721)
(-0.000311291758868 0.00017519244286 0.800146262902)
(-0.00023851708596 0.000309472734122 0.800264951913)
(-0.00018436572688 0.00015289182218 0.800249342153)
(-0.000203105882876 0.000165835335658 0.8003038061)
(-0.000141114082281 0.000106076760561 0.800299135235)
(-0.000149542020787 8.71614233154e-05 0.800322940424)
(-0.000105527762997 6.49231340786e-05 0.800323885768)
(-0.000103085868742 4.80400373125e-05 0.800334163392)
(-7.43867019236e-05 3.85448994476e-05 0.800336242456)
(-6.76045160267e-05 2.82420638975e-05 0.800340607969)
(-4.80996918278e-05 2.361302239e-05 0.800340728975)
(-4.0345035744e-05 1.83991948315e-05 0.800335000041)
(-2.53793949576e-05 1.65226887908e-05 0.800301144235)
(-1.76504292274e-05 1.48392512536e-05 0.800104246218)
(-3.83197238649e-06 1.40410178824e-05 0.797366648111)
(9.55878458479e-05 0.000674790409 0.800476911267)
(-0.000103477124442 0.000107781187647 0.800168266096)
(-0.000274388144526 0.00030213343028 0.800302900974)
(-0.000137965216685 0.000106346763149 0.800267266796)
(-0.000191367054404 0.0001443342089 0.800312973014)
(-0.000128719532309 6.60935345398e-05 0.800311049042)
(-0.000126762193917 6.90804199093e-05 0.800326457864)
(-9.85987791301e-05 3.80959994613e-05 0.800330027529)
(-8.32417674612e-05 3.52284590404e-05 0.800336190994)
(-6.76519906281e-05 2.24061864557e-05 0.800338929223)
(-5.19725425537e-05 1.97693084608e-05 0.800340221396)
(-4.09835357958e-05 1.44677190569e-05 0.800334137384)
(-2.70248532648e-05 1.31859229829e-05 0.800300588037)
(-1.75193282865e-05 1.14028083348e-05 0.800103613975)
(-4.37062673117e-06 1.05473934177e-05 0.797366105138)
(1.04207047523e-06 0.000112191460507 0.800209018691)
(-0.000475981248515 0.000838557626437 0.800397454403)
(-0.000223142029013 0.000148868409268 0.80011030793)
(-0.000367277809608 0.000169486174683 0.800292386275)
(-0.000183992265205 0.000108545424077 0.800259569657)
(-0.000225712365829 6.96903305659e-05 0.800315537911)
(-0.00013375533076 5.73770989824e-05 0.800311046662)
(-0.000136994138673 3.35419289341e-05 0.800329999621)
(-9.01009144762e-05 2.90985336263e-05 0.800331500203)
(-8.31265481127e-05 1.80014808762e-05 0.800338340051)
(-5.62692284246e-05 1.56510971237e-05 0.800338617668)
(-4.760503375e-05 1.09554540576e-05 0.80033363446)
(-2.90624389908e-05 9.92566114916e-06 0.800299908102)
(-2.05049826135e-05 8.59860279339e-06 0.800103208546)
(-4.14076185975e-06 8.26721184863e-06 0.797365669198)
(-0 0 0)
(-0.000177903786217 0.000170157908276 0.800189811987)
(-0.000813864730464 0.000373869392748 0.800414019487)
(-0.000193453615732 4.68532103662e-05 0.800196903831)
(-0.000300095992305 9.88993441872e-05 0.800293107795)
(-0.000182692316398 3.20605268723e-05 0.800295771832)
(-0.000163641646034 3.23454521096e-05 0.80031729382)
(-0.000127044625607 1.54129499035e-05 0.800325208044)
(-9.88227629194e-05 1.30607057752e-05 0.80033246792)
(-8.11526503755e-05 7.82885119421e-06 0.800336910879)
(-5.92083562151e-05 6.5222212893e-06 0.800338558533)
(-4.73096086995e-05 4.62366941502e-06 0.800333062216)
(-3.01732791415e-05 4.1093659883e-06 0.800299650129)
(-2.0087058176e-05 3.2725002376e-06 0.800102835199)
(-4.60569752639e-06 2.65831657732e-06 0.797365371043)
(0 -0 0)
(-0 0 0)
(-0.000116649794025 -1.51586125372e-05 0.80021639581)
(-0.000680677173474 -0.00022918905977 0.800368239164)
(-0.000222657341344 0.000112589481132 0.800213764414)
(-0.000299887976251 -1.13601834582e-05 0.800312616371)
(-0.000152263559817 3.11174558203e-05 0.800300675932)
(-0.000156661702508 -1.62239215869e-07 0.800327767977)
(-9.77540037781e-05 8.29907499767e-06 0.800328865981)
(-8.96992992842e-05 2.7288806513e-07 0.800337275833)
(-5.95648010731e-05 2.08936808587e-06 0.800337675974)
(-5.02425842235e-05 -1.10228026119e-07 0.800333051069)
(-3.03860880932e-05 2.33587848062e-07 0.800299395806)
(-2.13921780192e-05 -1.77509296846e-07 0.800102777119)
(-4.24166586854e-06 9.67853367444e-08 0.797365266767)
(-7.51998676653e-06 4.84485045857e-06 0.797354113145)
(-1.23246932405e-05 5.21486091418e-06 0.797354651563)
(-1.58896925521e-05 4.39706795044e-06 0.797355377378)
(-1.94163885502e-05 4.46958160455e-06 0.797356486212)
(-2.10055658448e-05 3.67671504842e-06 0.797357547471)
(-2.27430233771e-05 3.54853932366e-06 0.797358945566)
(-2.22783420538e-05 2.89729422134e-06 0.797360119754)
(-2.2254669442e-05 2.68390141421e-06 0.79736151909)
(-2.00860579616e-05 2.20926131987e-06 0.797362623837)
(-1.86171322189e-05 2.0021317746e-06 0.797363810716)
(-1.52385197638e-05 1.69051433534e-06 0.797364693164)
(-1.27335112429e-05 1.55025982612e-06 0.797365378947)
(-8.66171687879e-06 1.37158394269e-06 0.797362166502)
(-5.59455527502e-06 1.3561018812e-06 0.797257631435)
(-1.57058648612e-06 1.29275156641e-06 0.793858791713)
(-7.89152917594e-06 2.20626024855e-05 0.800090878688)
(-1.27655014053e-05 2.00194103612e-05 0.800091012961)
(-1.68150621703e-05 1.95289682991e-05 0.800092110119)
(-2.0145065675e-05 1.68445509386e-05 0.800092918716)
(-2.21593846952e-05 1.57074786632e-05 0.800094272507)
(-2.35196465319e-05 1.30924962869e-05 0.800095487867)
(-2.33864929603e-05 1.18050177402e-05 0.800096868755)
(-2.29198881046e-05 9.6748692944e-06 0.800098175671)
(-2.09978570485e-05 8.54050427552e-06 0.800099407377)
(-1.90964917074e-05 7.02170010822e-06 0.800100519966)
(-1.5895799912e-05 6.17166333208e-06 0.800101218281)
(-1.30092333712e-05 5.26883229373e-06 0.80009996842)
(-9.06383811139e-06 4.80804304516e-06 0.80008452813)
(-5.75666622551e-06 4.70022266775e-06 0.79994848851)
(-1.71368402359e-06 4.62768402603e-06 0.797257662016)
(-8.59222748609e-06 3.26129264193e-05 0.800284924904)
(-1.39657447055e-05 3.14798982001e-05 0.800285705189)
(-1.83688159568e-05 2.89048534061e-05 0.800286622661)
(-2.19253687644e-05 2.63975778588e-05 0.800288050952)
(-2.3984228679e-05 2.33222570846e-05 0.800289366422)
(-2.53089500839e-05 2.04432025597e-05 0.800291041281)
(-2.50583875977e-05 1.7648840863e-05 0.800292457357)
(-2.43899804397e-05 1.50833036476e-05 0.800294051064)
(-2.23212198833e-05 1.29101307997e-05 0.8002953177)
(-2.01473031495e-05 1.09670008214e-05 0.800296453004)
(-1.68264409167e-05 9.47883115226e-06 0.800296382583)
(-1.36603651024e-05 8.28498675185e-06 0.8002914441)
(-9.62716187685e-06 7.56796199732e-06 0.800263514951)
(-6.0633096074e-06 7.25634955395e-06 0.800084532798)
(-1.81107134223e-06 6.95523116853e-06 0.797362211062)
(-9.59476005549e-06 5.15713815102e-05 0.800318897804)
(-1.55314694173e-05 4.75513226696e-05 0.800318389902)
(-2.07048128276e-05 4.52161095972e-05 0.800320409498)
(-2.42618092484e-05 3.94314265922e-05 0.80032102071)
(-2.66893337896e-05 3.5878105056e-05 0.800323095622)
(-2.76589613249e-05 3.01624412992e-05 0.800324387042)
(-2.74636100969e-05 2.66310396093e-05 0.800326256369)
(-2.63416794806e-05 2.19826077318e-05 0.800327723008)
(-2.41516649086e-05 1.90996525108e-05 0.80032922327)
(-2.15652889241e-05 1.5795196988e-05 0.80033027359)
(-1.80549632887e-05 1.37619403192e-05 0.800329973276)
(-1.4552121881e-05 1.18133051864e-05 0.800323667542)
(-1.03099885843e-05 1.0830615662e-05 0.800291556699)
(-6.43695729993e-06 1.03313118133e-05 0.800100083124)
(-1.96715121247e-06 1.00506787108e-05 0.797365543257)
(-1.18643382905e-05 6.46635196517e-05 0.800318394917)
(-1.96953574166e-05 6.16295595659e-05 0.800320368165)
(-2.56817943383e-05 5.60303379561e-05 0.800321624739)
(-3.0292497257e-05 5.02809693189e-05 0.800324536411)
(-3.22846341491e-05 4.38930656664e-05 0.800326307524)
(-3.35534891644e-05 3.78212274558e-05 0.800329254258)
(-3.23534200802e-05 3.22945204231e-05 0.800331093682)
(-3.10771146495e-05 2.71862779496e-05 0.800333585525)
(-2.78309327428e-05 2.30633566557e-05 0.800335164404)
(-2.4899732428e-05 1.93478765492e-05 0.800336767547)
(-2.04848639118e-05 1.6623540095e-05 0.800336451146)
(-1.65996603699e-05 1.44037008354e-05 0.800329986148)
(-1.15939799744e-05 1.31398472897e-05 0.800296550485)
(-7.34855879954e-06 1.24274690333e-05 0.800101370386)
(-2.15689651549e-06 1.18689747871e-05 0.797364903205)
(-1.47280702106e-05 8.94171547154e-05 0.800320299158)
(-2.39984710823e-05 8.15026226079e-05 0.800317423457)
(-3.17805731486e-05 7.61401052079e-05 0.800322505237)
(-3.60767918566e-05 6.49626811841e-05 0.800322415445)
(-3.88131770912e-05 5.79898350672e-05 0.800326661243)
(-3.8920568013e-05 4.7666390925e-05 0.800328206888)
(-3.77888770076e-05 4.13602182564e-05 0.80033140335)
(-3.52891557986e-05 3.34806365498e-05 0.800333397198)
(-3.17573066991e-05 2.86699859018e-05 0.800335650556)
(-2.78377018687e-05 2.33386261791e-05 0.800337136054)
(-2.29972710969e-05 2.01110043293e-05 0.800337101479)
(-1.83536625901e-05 1.70688314393e-05 0.800330525876)
(-1.28922583235e-05 1.55663481789e-05 0.800296850833)
(-7.99875020676e-06 1.4689079992e-05 0.80010088612)
(-2.42225161486e-06 1.41835020798e-05 0.797364240439)
(-1.9840306757e-05 0.000110298691759 0.800300414471)
(-3.30030643397e-05 0.00010215332085 0.800306240782)
(-4.21546037801e-05 9.04110963926e-05 0.800308028751)
(-4.83715296474e-05 7.84590849178e-05 0.800315085061)
(-4.94973500114e-05 6.64822254555e-05 0.800317631704)
(-5.00962366464e-05 5.55984142301e-05 0.800323628419)