/*--------------------------------*- C++ -*----------------------------------*\
| =========                 |                                                 |
| \\      /  F ield         | OpenFOAM: The Open Source CFD Toolbox           |
|  \\    /   O peration     | Version:  2406                                  |
|   \\  /    A nd           | Website:  www.openfoam.com                      |
|    \\/     M anipulation  |                                                 |
\*---------------------------------------------------------------------------*/
FoamFile
{
    version     2.0;
    format      ascii;
    arch        "LSB;label=32;scalar=64";
    class       volVectorField;
    location    "0.01";
    object      U_0;
}
// * * * * * * * * * * * * * * * * * * * * * * * * * * * * * * * * * * * * * //

dimensions      [0 1 -1 0 0 0 0];

internalField   nonuniform List<vector> 
29768
(
(-7.99334501969e-06 4.83543180703e-06 0.797397383874)
(-1.34500021746e-05 5.75739787587e-06 0.79739769558)
(-1.74015439913e-05 4.51605187866e-06 0.797397780185)
(-2.13699225314e-05 4.9775223933e-06 0.797398203655)
(-2.31533347671e-05 3.88648268598e-06 0.797398635141)
(-2.50777995153e-05 3.96644432721e-06 0.797399111112)
(-2.46163025191e-05 3.1349209918e-06 0.797399783307)
(-2.45450281499e-05 3.00744959688e-06 0.797400258287)
(-2.2230766027e-05 2.43641878914e-06 0.797401027974)
(-2.05220692393e-05 2.25346992015e-06 0.797401452648)
(-1.68995536608e-05 1.89815695163e-06 0.79740214883)
(-1.40168799722e-05 1.7608458798e-06 0.797402324281)
(-9.64784248091e-06 1.57327591775e-06 0.797399074525)
(-6.14087510222e-06 1.5588411761e-06 0.797295300513)
(-1.80056624662e-06 1.50481176753e-06 0.793913794177)
(-8.37350207805e-06 2.56831209657e-05 0.800122829106)
(-1.38391698035e-05 2.29353406139e-05 0.800123017922)
(-1.84514709042e-05 2.25357787095e-05 0.800123186383)
(-2.21409636762e-05 1.91268344479e-05 0.800123538575)
(-2.45077343742e-05 1.79219589631e-05 0.800123984636)
(-2.59698696031e-05 1.47378445067e-05 0.800124439021)
(-2.5931623512e-05 1.33342340095e-05 0.800125067009)
(-2.53499310876e-05 1.08204966615e-05 0.800125559117)
(-2.3312719709e-05 9.58258683728e-06 0.800126246135)
(-2.11277822951e-05 7.83229069857e-06 0.800126675855)
(-1.76690764239e-05 6.91442661908e-06 0.800127038081)
(-1.43779976807e-05 5.8894488555e-06 0.800125368425)
(-1.00950068322e-05 5.40555527211e-06 0.800109981527)
(-6.32612157503e-06 5.24772041618e-06 0.799974988057)
(-1.93602688444e-06 5.15248011069e-06 0.797295290272)
(-9.33507516183e-06 3.59676968666e-05 0.800317549947)
(-1.55316343398e-05 3.57423764915e-05 0.800317808509)
(-2.04803807845e-05 3.21139647577e-05 0.800317902925)
(-2.4547145852e-05 2.99641666885e-05 0.800318331034)
(-2.68062055117e-05 2.60271264157e-05 0.800318705685)
(-2.8304667465e-05 2.31218127382e-05 0.80031923592)
(-2.79870661776e-05 1.97377755751e-05 0.800319794567)
(-2.72222340332e-05 1.70030694502e-05 0.800320352316)
(-2.49092288075e-05 1.44708505688e-05 0.800320947395)
(-2.24456930583e-05 1.23594303123e-05 0.800321286033)
(-1.87701163735e-05 1.06783453931e-05 0.800320780804)
(-1.51860377129e-05 9.37567837305e-06 0.800315435177)
(-1.0736615033e-05 8.58706051341e-06 0.800287637917)
(-6.695038268e-06 8.22016585183e-06 0.800109993019)
(-2.03993818765e-06 7.87307438529e-06 0.797399089088)
(-1.02192146118e-05 6.08801034883e-05 0.800351250403)
(-1.68010046079e-05 5.52561044119e-05 0.800351372636)
(-2.30037192891e-05 5.28277379192e-05 0.800351605645)
(-2.67870352375e-05 4.53414921271e-05 0.800351955352)
(-2.98727566744e-05 4.13629973856e-05 0.800352426665)
(-3.07383234395e-05 3.43439456496e-05 0.800352926678)
(-3.07395257208e-05 3.03588784423e-05 0.800353531916)
(-2.9322521877e-05 2.4862755915e-05 0.8003540857)
(-2.69959961641e-05 2.16258735605e-05 0.800354684102)
(-2.39947469182e-05 1.78205536962e-05 0.80035496475)
(-2.01508531959e-05 1.55586423653e-05 0.800354109884)
(-1.61503516869e-05 1.33503566682e-05 0.800347410169)
(-1.14767941318e-05 1.22564007898e-05 0.800315423029)
(-7.06966602967e-06 1.16271915543e-05 0.800125358181)
(-2.20392751179e-06 1.12559547968e-05 0.797402298297)
(-1.35052884858e-05 7.16110344146e-05 0.800357786141)
(-2.2868854374e-05 7.13584398948e-05 0.800358411107)
(-2.94872786342e-05 6.28482545371e-05 0.800358271524)
(-3.49230128487e-05 5.80817808815e-05 0.800359043926)
(-3.67341804993e-05 4.94938296238e-05 0.800359309325)
(-3.82077308317e-05 4.33388203274e-05 0.800360085822)
(-3.65098647286e-05 3.64405506573e-05 0.800360596676)
(-3.50467665444e-05 3.09335933714e-05 0.800361303438)
(-3.1230074637e-05 2.60303795184e-05 0.800361859716)
(-2.78951104257e-05 2.1948835795e-05 0.80036219744)
(-2.29007663171e-05 1.88098877493e-05 0.800361220605)
(-1.84968289495e-05 1.63564841803e-05 0.800354123691)
(-1.29133424967e-05 1.49120202806e-05 0.800320782001)
(-8.11706906705e-06 1.40688702756e-05 0.800127056281)
(-2.40862701721e-06 1.33942126621e-05 0.797402179911)
(-1.54213894818e-05 0.000111189774991 0.800358592793)
(-2.53785474256e-05 9.75033765259e-05 0.800358584402)
(-3.59913037178e-05 9.25919786262e-05 0.80035910372)
(-3.97964697861e-05 7.61886265401e-05 0.800359483759)
(-4.42515030932e-05 6.86858329684e-05 0.800360205226)
(-4.34307163342e-05 5.50021275702e-05 0.800360793369)
(-4.2812462244e-05 4.79663243775e-05 0.800361538141)
(-3.94313411034e-05 3.82169987941e-05 0.80036217423)
(-3.57337097122e-05 3.28085404917e-05 0.800362826814)
(-3.1039132171e-05 2.65050002739e-05 0.800363138101)
(-2.57410422167e-05 2.28856366834e-05 0.800362164381)
(-2.03786342343e-05 1.93759317364e-05 0.800354951928)
(-1.43576627488e-05 1.76752073983e-05 0.800321259239)
(-8.78087971514e-06 1.65848009987e-05 0.800126649998)
(-2.71198023319e-06 1.59419478958e-05 0.797401403476)
(-2.51016010294e-05 0.000119655893609 0.8003559543)
(-4.16088031746e-05 0.0001229645426 0.800357755047)
(-5.07978763533e-05 0.000101773079731 0.800356948274)
(-5.87630827488e-05 9.37468111042e-05 0.800358814929)
(-5.78336427154e-05 7.57480216784e-05 0.800358849641)
(-5.88365124772e-05 6.51634467457e-05 0.800360302585)
(-5.32109091531e-05 5.27264124001e-05 0.800360762603)
(-5.01294124745e-05 4.3779012902e-05 0.800361817486)
(-4.28879622759e-05 3.586012415e-05 0.800362369709)
(-3.7816235483e-05 2.95936121982e-05 0.800362862938)
(-3.01990340892e-05 2.48777129306e-05 0.800361854537)
(-2.429417969e-05 2.12536415195e-05 0.800354698605)
(-1.66624762854e-05 1.91674135301e-05 0.800320945229)
(-1.05582732749e-05 1.79570183543e-05 0.80012627019)
(-3.01508904667e-06 1.70485207959e-05 0.79740107763)
(-2.80103881941e-05 0.000199788171706 0.800355174681)
(-4.4201784457e-05 0.000160536486819 0.800354234637)
(-6.55226714813e-05 0.000152762837774 0.800356146435)
(-6.58985929583e-05 0.000114211738876 0.800356391773)
(-7.28380643089e-05 0.000102185432063 0.800358184745)
(-6.64380955076e-05 7.58480939315e-05 0.80035887597)
(-6.41807976553e-05 6.5250183811e-05 0.800360132419)
(-5.62839753728e-05 4.92032210881e-05 0.800360896724)
(-4.99186988561e-05 4.15626242015e-05 0.800361749965)
(-4.20721181756e-05 3.22970892915e-05 0.800362150839)
(-3.43156977163e-05 2.74476242429e-05 0.800361240854)
(-2.67659935891e-05 2.26448034571e-05 0.800354054301)
(-1.86924187337e-05 2.04416431432e-05 0.800320304208)
(-1.13804628023e-05 1.89706139391e-05 0.80012551162)
(-3.46497617791e-06 1.81317001308e-05 0.797400178056)
(-6.7574516138e-05 0.000189665998161 0.800347006332)
(-9.26278460528e-05 0.000210976876351 0.800352300183)
(-9.84369159655e-05 0.000153526045744 0.800349496541)
(-0.000109710112809 0.000141805205865 0.800354990838)
(-9.62834930975e-05 0.000104097086522 0.800354508484)
(-9.57878528276e-05 8.73110618718e-05 0.800357879293)
(-7.98573701766e-05 6.65080263206e-05 0.800358289097)
(-7.38170623753e-05 5.33760268405e-05 0.800360156869)
(-5.98070393052e-05 4.20698874455e-05 0.800360742912)
(-5.20005823426e-05 3.35903638589e-05 0.80036155908)
(-4.01311013083e-05 2.75016813334e-05 0.800360577207)
(-3.21215899387e-05 2.28804360608e-05 0.800353538342)
(-2.16084524988e-05 2.03311854664e-05 0.800319787518)
(-1.38018033828e-05 1.88898594165e-05 0.800125095657)
(-3.78384861485e-06 1.78961574615e-05 0.797399855333)
(-7.69333667665e-05 0.000381953901548 0.800345123143)
(-9.42064119248e-05 0.000248464833759 0.800340531217)
(-0.000138936839851 0.000248729427262 0.800348999587)
(-0.000116474107398 0.000154369642168 0.800348243228)
(-0.000127607205829 0.000140570837713 0.80035442712)
(-0.00010408921293 9.15404143938e-05 0.800355061054)
(-9.81313889495e-05 7.83691571905e-05 0.800357919177)
(-8.07276374419e-05 5.41867003014e-05 0.800358825402)
(-6.9721543788e-05 4.50491897667e-05 0.800360196236)
(-5.67168606434e-05 3.30714077993e-05 0.800360726999)
(-4.53266443544e-05 2.75823077041e-05 0.800359977917)
(-3.47937905971e-05 2.19522531217e-05 0.800352863675)
(-2.40436397957e-05 1.95563347893e-05 0.800319158792)
(-1.46046676192e-05 1.78978129211e-05 0.80012436368)
(-4.36175056779e-06 1.69936311463e-05 0.797398992637)
(-0.000318620934527 0.000278455474627 0.800298704098)
(-0.000253730381528 0.00037351036221 0.800335670857)
(-0.00020313447576 0.000208258577209 0.800326383761)
(-0.000220562435325 0.000199998329142 0.80034619738)
(-0.000159794437458 0.000126139864402 0.800345186739)
(-0.000158152503963 0.000102026219769 0.800353975761)
(-0.000117254126549 7.22599776573e-05 0.800354436467)
(-0.000107147460666 5.48176307895e-05 0.800358076969)
(-8.09413885723e-05 4.15384213729e-05 0.800358783777)
(-6.95471586028e-05 3.14837047975e-05 0.800360179168)
(-5.15634318022e-05 2.51109415404e-05 0.800359264208)
(-4.10667882457e-05 2.00871793243e-05 0.800352413332)
(-2.70534764563e-05 1.75722613994e-05 0.800318686474)
(-1.73964051307e-05 1.61446892789e-05 0.800124019484)
(-4.5853719255e-06 1.53077434766e-05 0.797398737517)
(0.000135531313458 0.000987731601371 0.80025285722)
(-0.000231301093823 0.00021258654958 0.800283396121)
(-0.000323565600026 0.000379350137186 0.800325612763)
(-0.000202733705969 0.000161711532169 0.8003239574)
(-0.000226777929437 0.000166943832679 0.800348280394)
(-0.000158329149712 8.78869926647e-05 0.800348275214)
(-0.000145461358682 7.70535986369e-05 0.800355327041)
(-0.00011148276835 4.70388581537e-05 0.800356273786)
(-9.30803023319e-05 3.85548354638e-05 0.800358658397)
(-7.32232283639e-05 2.63159801648e-05 0.800359354192)
(-5.70299023538e-05 2.14582434581e-05 0.80035886577)
(-4.32239381467e-05 1.63704103942e-05 0.800351848844)
(-2.94474468579e-05 1.43518355386e-05 0.800318210987)
(-1.7933922701e-05 1.2925637978e-05 0.800123433988)
(-5.20876554122e-06 1.2165103458e-05 0.797398043537)
(-7.32724593397e-05 0.000272859736607 0.800215219884)
(-0.000674266670513 0.00115627362609 0.800189685038)
(-0.000304617259412 0.000180193861023 0.800256271659)
(-0.00043222749028 0.000230249016073 0.800322658812)
(-0.000235375570427 0.000120653546116 0.800325099196)
(-0.00024887342668 8.55782139442e-05 0.800347870027)
(-0.000158451232075 6.11679177266e-05 0.800348941187)
(-0.000145741495471 3.9847933652e-05 0.800355729808)
(-0.000101701487844 3.05998329695e-05 0.800356776138)
(-8.67158665993e-05 2.06888766348e-05 0.800358986405)
(-6.17794000633e-05 1.64956102729e-05 0.800358194374)
(-4.89660519459e-05 1.22576845656e-05 0.800351564348)
(-3.16652805786e-05 1.06405638202e-05 0.800317872177)
(-2.04313523289e-05 9.61081206248e-06 0.800123236522)
(-5.23312209888e-06 9.24381530828e-06 0.797397925014)
(-0 0 0)
(-0.000203957559586 0.000284494755518 0.800203669257)
(-0.00116143304674 0.000622923965753 0.800168383376)
(-0.000275562182368 0.000107825145148 0.80026499427)
(-0.000363534405988 0.000132956934891 0.800341658511)
(-0.000220366209176 5.04083025289e-05 0.800339439726)
(-0.000192339494664 4.2779697618e-05 0.800352697821)
(-0.000142360326824 2.25498959848e-05 0.800353877232)
(-0.000112317882823 1.68609226742e-05 0.800357366308)
(-8.73941120705e-05 1.08281751871e-05 0.800358367267)
(-6.56840918017e-05 8.21043539395e-06 0.800358104892)
(-4.97574605325e-05 6.07373447015e-06 0.800351218509)
(-3.32412759965e-05 5.13069642607e-06 0.800317632586)
(-2.04989431116e-05 4.5576560516e-06 0.800122890016)
(-5.7217651041e-06 4.18571574931e-06 0.797397494037)
(-0 0 -0)
(-0 0 0)
(-0.000247721617131 1.47976158045e-05 0.80025315224)
(-0.000884315198275 -0.000292320515888 0.800257617732)
(-0.000315636044779 0.000111313588348 0.800300246247)
(-0.000352012764162 -2.53766761817e-06 0.800338082603)
(-0.0001900201553 2.90377802768e-05 0.800344082364)
(-0.000172434018628 2.65587050874e-06 0.800353523828)
(-0.0001135699303 7.60639578681e-06 0.800355609537)
(-9.54199737972e-05 1.25835910294e-06 0.800358344108)
(-6.66612815157e-05 2.0592777558e-06 0.8003577292)
(-5.24011817529e-05 3.78879076914e-07 0.800351198264)
(-3.36929774172e-05 4.82432847707e-07 0.800317529067)
(-2.16360453215e-05 3.12069364037e-07 0.800122903452)
(-5.53521579691e-06 6.27068889565e-07 0.797397582049)
(-7.94822450287e-06 2.09938916541e-06 0.797375904848)
(-1.28357240763e-05 3.93666667946e-06 0.797376194597)
(-1.70836504759e-05 2.34952104918e-06 0.797376637071)
(-2.05043076446e-05 3.58517590146e-06 0.797377186848)
(-2.25706185253e-05 2.42255034514e-06 0.797377911933)
(-2.41891668202e-05 3.03330773362e-06 0.797378596006)
(-2.39211813097e-05 2.26497937964e-06 0.797379444954)
(-2.38185856925e-05 2.45298122013e-06 0.797380134396)
(-2.161069607e-05 1.97555708479e-06 0.797380956658)
(-2.0069403745e-05 1.96058745774e-06 0.797381547281)
(-1.6490584586e-05 1.67592970482e-06 0.797382206998)
(-1.38658226983e-05 1.61047299378e-06 0.79738247642)
(-9.47863446366e-06 1.44556488666e-06 0.797379159113)
(-6.19244561543e-06 1.41987837095e-06 0.797275387954)
(-1.72932739505e-06 1.32440774488e-06 0.793893858503)
(-8.16390910053e-06 2.68485972682e-05 0.800102073658)
(-1.29928508191e-05 2.3541938935e-05 0.800102129325)
(-1.77608636532e-05 2.3445549128e-05 0.800102772473)
(-2.09219817268e-05 1.94111303986e-05 0.800103183979)
(-2.35288750202e-05 1.85756979224e-05 0.800104056443)
(-2.47465536014e-05 1.48666121463e-05 0.800104701659)
(-2.49144272546e-05 1.37917935954e-05 0.800105643904)
(-2.43591163008e-05 1.09181450753e-05 0.8001063535)
(-2.24645846967e-05 9.91014117755e-06 0.800107221711)
(-2.04853270283e-05 7.94560712462e-06 0.800107824428)
(-1.71209274444e-05 7.1473490349e-06 0.800108255556)
(-1.41178944894e-05 5.9968704111e-06 0.80010667687)
(-9.89298868096e-06 5.51525384971e-06 0.800091232164)
(-6.39449259629e-06 5.27914540627e-06 0.799955882276)
(-1.91061781977e-06 5.17461406694e-06 0.797275399174)
(-9.46797705438e-06 3.06970325224e-05 0.800296565521)
(-1.5294711465e-05 3.19569041708e-05 0.800297041722)
(-2.02455317181e-05 2.79745151065e-05 0.800297564276)
(-2.40017503585e-05 2.69629162083e-05 0.800298386006)
(-2.62135478693e-05 2.32749590476e-05 0.800299225749)
(-2.7611955048e-05 2.10463170837e-05 0.800300177276)
(-2.72317290761e-05 1.81106705927e-05 0.800301123512)
(-2.65616563082e-05 1.57144322015e-05 0.800302033175)
(-2.42087229019e-05 1.35816299293e-05 0.800302895614)
(-2.19679166184e-05 1.16195085236e-05 0.800303489873)
(-1.82932657353e-05 1.01940360252e-05 0.800303128306)
(-1.50014421727e-05 8.93556892659e-06 0.800297886766)
(-1.05851873785e-05 8.22965470783e-06 0.800269930186)
(-6.84582360262e-06 7.79825438854e-06 0.800091232538)
(-2.02423125895e-06 7.42406451401e-06 0.797379175044)
(-9.85994009993e-06 6.05554706043e-05 0.800330564958)
(-1.525577431e-05 5.41347273999e-05 0.800330246648)
(-2.17458286416e-05 5.23315478567e-05 0.800331389298)
(-2.46650850624e-05 4.39784621125e-05 0.800331712266)
(-2.8210409397e-05 4.08866559638e-05 0.800332999244)
(-2.87566579942e-05 3.3152834737e-05 0.800333729877)
(-2.91308418994e-05 2.9969208852e-05 0.800334952445)
(-2.77977531785e-05 2.39868292814e-05 0.800335797681)
(-2.57169756874e-05 2.13170962174e-05 0.800336797941)
(-2.3011547593e-05 1.72254906672e-05 0.800337316902)
(-1.93388129741e-05 1.52874034484e-05 0.800336682054)
(-1.57239152207e-05 1.29255681694e-05 0.800330083249)
(-1.11946090824e-05 1.19521935546e-05 0.80029793513)
(-7.16540246454e-06 1.12712379362e-05 0.800106720737)
(-2.16876132555e-06 1.094064807e-05 0.797382537249)
(-1.42585854325e-05 6.06900029829e-05 0.800333229612)
(-2.28187055231e-05 6.3862496388e-05 0.80033463987)
(-2.94866800378e-05 5.45941907501e-05 0.800335219599)
(-3.43834904627e-05 5.2245182281e-05 0.800337034039)
(-3.59843591702e-05 4.42487603902e-05 0.800338122024)
(-3.74507630478e-05 3.93555799393e-05 0.800339835478)
(-3.54610946046e-05 3.33914328938e-05 0.800341045446)
(-3.43169694302e-05 2.84176892561e-05 0.800342449731)
(-3.02644477905e-05 2.42963704955e-05 0.800343496973)
(-2.73763553503e-05 2.04090162247e-05 0.800344281399)
(-2.2251993433e-05 1.7768317279e-05 0.800343581873)
(-1.83322896609e-05 1.53753270145e-05 0.800336680638)
(-1.27007495501e-05 1.41473739683e-05 0.80030319798)
(-8.35991486271e-06 1.32325006438e-05 0.800108312717)
(-2.34039507362e-06 1.2551531732e-05 0.797382285294)
(-1.46199935846e-05 0.000108787487799 0.800335554243)
(-2.11759564387e-05 9.31687143035e-05 0.800333548065)
(-3.30886235164e-05 9.00948884403e-05 0.800336470801)
(-3.46955415205e-05 7.18722822076e-05 0.800336208664)
(-4.07602542219e-05 6.67862311067e-05 0.80033884188)
(-3.92806350584e-05 5.17261066984e-05 0.800339631591)
(-3.97580224503e-05 4.66242589554e-05 0.800341695154)
(-3.66106090003e-05 3.60085780147e-05 0.800342788222)
(-3.34932293677e-05 3.18421184346e-05 0.800344262265)
(-2.93712730979e-05 2.50707135209e-05 0.800344972941)
(-2.43660401666e-05 2.21323892891e-05 0.800344440064)
(-1.96434089139e-05 1.84077517905e-05 0.800337421185)
(-1.37915191535e-05 1.69862341027e-05 0.800303660485)
(-8.78706022119e-06 1.57896949205e-05 0.800107967774)
(-2.57932213626e-06 1.51942012551e-05 0.797381709819)
(-2.76421758568e-05 9.54911367745e-05 0.80032158759)
(-4.15710146674e-05 0.000107840629196 0.800326536292)
(-5.07512608462e-05 8.49696306268e-05 0.800326894531)
(-5.76213956225e-05 8.28026286965e-05 0.800331904128)
(-5.60460232131e-05 6.62753955985e-05 0.800333341999)
(-5.75260871928e-05 5.82997952374e-05 0.800337116384)
(-5.10985565758e-05 4.77684507739e-05 0.800338789264)
(-4.90275850871e-05 3.9724364754e-05 0.800341345246)
(-4.11506784534e-05 3.32371220708e-05 0.800342767568)
(-3.70834222126e-05 2.72249162111e-05 0.800344145455)
(-2.90722939675e-05 2.33637835422e-05 0.8003436528)
(-2.40424371511e-05 1.98033235007e-05 0.800336890531)
(-1.61804753576e-05 1.80859044315e-05 0.800303102886)
(-1.08256195428e-05 1.6759329402e-05 0.800107385627)
(-2.80695068717e-06 1.58540262989e-05 0.797381149913)
(-2.56774930801e-05 0.000191001850531 0.800329616323)
(-3.22384006645e-05 0.000147028687218 0.800320799079)
(-5.83062431769e-05 0.00014495378294 0.800329645451)
(-5.343177856e-05 0.000102977706247 0.80032702848)
(-6.52590532261e-05 9.75146833515e-05 0.800333361962)
(-5.77714707225e-05 6.87002933374e-05 0.800334002896)
(-5.83170522907e-05 6.2545062245e-05 0.800337968016)
(-5.11284525543e-05 4.50325333411e-05 0.800339480082)
(-4.59917008828e-05 3.98804608765e-05 0.80034188241)
(-3.92909316682e-05 2.98845504497e-05 0.800342983158)
(-3.20006175933e-05 2.62747360223e-05 0.800342887622)
(-2.55343403338e-05 2.11701946444e-05 0.800336074078)
(-1.76275712765e-05 1.94463540247e-05 0.800302403126)
(-1.1221022491e-05 1.77663776493e-05 0.800106653739)
(-3.1576823082e-06 1.69605930439e-05 0.797380455871)
(-7.25154090135e-05 0.00013602545745 0.800285552437)
(-8.9967949944e-05 0.000179576320704 0.800305999276)
(-9.55880828082e-05 0.000120292501092 0.800304048182)
(-0.000105294176835 0.000121767567104 0.800319935654)
(-9.03793980752e-05 8.84768114971e-05 0.800320913572)
(-9.25037228709e-05 7.64182183927e-05 0.800330216285)
(-7.47658143287e-05 5.95166659129e-05 0.800332232774)
(-7.16920595804e-05 4.76234029667e-05 0.800337307106)
(-5.63104575595e-05 3.87811819383e-05 0.800339178546)
(-5.07534374495e-05 3.05099440294e-05 0.800341665995)
(-3.80419535541e-05 2.57387391314e-05 0.800341496096)
(-3.16361099538e-05 2.11243597496e-05 0.80033519739)
(-2.06056240903e-05 1.91063855251e-05 0.800301550006)
(-1.40497452974e-05 1.74833806315e-05 0.800105969431)
(-3.33848279935e-06 1.65095645603e-05 0.79737981503)
(-6.49955373981e-05 0.000349849602167 0.800323525402)
(-5.59962834665e-05 0.00020789950432 0.800286838845)
(-0.000118751884587 0.000224297112417 0.800318373639)
(-8.6078095765e-05 0.000127032075265 0.8003076888)
(-0.000110808928042 0.000129572782288 0.800324516643)
(-8.67728910609e-05 7.75431808411e-05 0.800324276164)
(-8.71212670211e-05 7.33946224515e-05 0.800332280159)
(-7.18675696206e-05 4.73299925597e-05 0.80033446003)
(-6.31200897859e-05 4.25043787053e-05 0.800338446062)
(-5.24033014752e-05 2.96285552493e-05 0.800340169801)
(-4.16559810697e-05 2.60520810116e-05 0.800340729073)
(-3.29355262999e-05 2.00809082216e-05 0.800334267769)
(-2.22837867199e-05 1.83687084289e-05 0.800300837788)
(-1.42512268919e-05 1.63963203026e-05 0.800105220257)
(-3.80411515925e-06 1.5487422801e-05 0.797379134871)
(-0.000309157343065 0.000174390025313 0.800146180723)
(-0.000237096803481 0.000308113000258 0.80026401013)
(-0.000183281094669 0.000152284640042 0.800248409799)
(-0.000202074888336 0.000165133518904 0.800302500601)
(-0.000140393090463 0.000105646497491 0.80029780643)
(-0.000148819178947 8.67922197679e-05 0.800321440856)
(-0.000105014464126 6.46528113084e-05 0.800322356458)
(-0.000102591778906 4.78367842965e-05 0.800332559625)
(-7.40289249213e-05 3.8382983261e-05 0.800334615569)
(-6.72787573507e-05 2.81237076434e-05 0.800338953643)
(-4.78676794941e-05 2.35144271997e-05 0.800339088334)
(-4.01472648465e-05 1.83221171905e-05 0.800333459257)
(-2.52557102788e-05 1.64521605704e-05 0.800299980125)
(-1.7560170591e-05 1.47720001451e-05 0.800104598504)
(-3.81456748021e-06 1.39760786135e-05 0.797378525553)
(9.49640421682e-05 0.000671673634489 0.800474186325)
(-0.000102956083284 0.000107605721506 0.800167800594)
(-0.000272972085074 0.000300995152921 0.800301770034)
(-0.000137325971309 0.000106034355756 0.800266213907)
(-0.000190451181789 0.000143767076363 0.800311607702)
(-0.000128150265851 6.58591838736e-05 0.800309639634)
(-0.000126166831643 6.87998040377e-05 0.800324926298)
(-9.81565899004e-05 3.79522743859e-05 0.800328456918)
(-8.28511147259e-05 3.50855673285e-05 0.800334568237)
(-6.73419921077e-05 2.23205295921e-05 0.80033728803)
(-5.17271063184e-05 1.96907740238e-05 0.800338584904)
(-4.07915233706e-05 1.44116509034e-05 0.800332602781)
(-2.68960115959e-05 1.31329548804e-05 0.800299427751)
(-1.74362008789e-05 1.1355479255e-05 0.800103970589)
(-4.35042375187e-06 1.05051964314e-05 0.797377986234)
(7.25964864711e-07 0.000112161428663 0.800207732406)
(-0.000473839901411 0.000834394566292 0.800395249978)
(-0.000222014602001 0.000148284103278 0.800110243039)
(-0.000365637278156 0.000168898071507 0.800291253998)
(-0.000183167161038 0.000108137675784 0.800258537168)
(-0.00022469015254 6.94234435094e-05 0.800314130487)
(-0.000133147697904 5.71411006826e-05 0.800309619429)
(-0.000136360981425 3.34079355027e-05 0.800328437031)
(-8.96845070468e-05 2.89778332388e-05 0.800329910565)
(-8.27355048201e-05 1.79305811353e-05 0.800336704824)
(-5.60049941956e-05 1.55882587917e-05 0.800336992702)
(-4.73754707172e-05 1.09131639786e-05 0.800332103792)
(-2.89237204564e-05 9.88633695867e-06 0.800298752596)
(-2.04011272246e-05 8.56150526787e-06 0.800103568375)
(-4.12326979295e-06 8.22890595364e-06 0.79737755351)
(-0 0 0)
(-0.000177267449638 0.00016957617894 0.800188427594)
(-0.000810159133124 0.00037255885722 0.800411929272)
(-0.00019260093532 4.69429430396e-05 0.800196242301)
(-0.000298765482294 9.85597353445e-05 0.800291915798)
(-0.00018191093986 3.19815471631e-05 0.80029450112)
(-0.000162900365538 3.22321247563e-05 0.800315842784)
(-0.000126483611414 1.53713733502e-05 0.800323682881)
(-9.83680458001e-05 1.30211378934e-05 0.800330875093)
(-8.0783956102e-05 7.81016646535e-06 0.80033528691)
(-5.89321175418e-05 6.50565681552e-06 0.80033693432)
(-4.70883981919e-05 4.61354713981e-06 0.80033153568)
(-3.00302666483e-05 4.09959964204e-06 0.800298496311)
(-1.99904086989e-05 3.26612268901e-06 0.800103197473)
(-4.58504730338e-06 2.65731502317e-06 0.797377257204)
(0 -0 0)
(-0 0 0)
(-0.000116723038943 -1.49731401603e-05 0.800215122425)
(-0.000677737753606 -0.000227798706212 0.800366437836)
(-0.000221701361524 0.000112163204015 0.800212989516)
(-0.000298529314876 -1.1284816848e-05 0.80031126193)
(-0.000151587514445 3.09792162441e-05 0.800299332684)
(-0.000155947411923 -1.51799878571e-07 0.800326232173)
(-9.73131346774e-05 8.26583469109e-06 0.800327298959)
(-8.92846348571e-05 2.80102806302e-07 0.800335650714)
(-5.9290944185e-05 2.08600838818e-06 0.800336058523)
(-5.00041882999e-05 -1.02486452536e-07 0.800331524957)
(-3.02438611332e-05 2.39022815339e-07 0.800298243973)
(-2.12856377354e-05 -1.72256023647e-07 0.800103140113)
(-4.22470815344e-06 9.74241178443e-08 0.797377153864)
(-7.46973842677e-06 4.8206461672e-06 0.797366030895)
(-1.22522259148e-05 5.18808545409e-06 0.797366568677)
(-1.5796551437e-05 4.37588563214e-06 0.797367286771)
(-1.93094312351e-05 4.44759582867e-06 0.797368390945)
(-2.08885522836e-05 3.65983585062e-06 0.797369443597)
(-2.26215799706e-05 3.53202263856e-06 0.797370834936)
(-2.21582237259e-05 2.88470833182e-06 0.797372000809)
(-2.21382410306e-05 2.67214181453e-06 0.797373392867)
(-1.99805025247e-05 2.20016946729e-06 0.7973744904)
(-1.85213715369e-05 1.993852096e-06 0.797375670906)
(-1.51604099937e-05 1.68390388514e-06 0.797376548086)
(-1.26693538516e-05 1.54414011313e-06 0.797377232027)
(-8.61886864453e-06 1.36646479848e-06 0.797374061126)
(-5.56751087894e-06 1.35059817276e-06 0.79727052235)
(-1.56291027144e-06 1.28767099865e-06 0.793889091555)
(-7.8383604347e-06 2.19568874828e-05 0.800091283304)
(-1.26898782528e-05 1.99200763337e-05 0.800091418823)
(-1.67159947767e-05 1.9436636637e-05 0.800092506456)
(-2.00336708727e-05 1.67633947609e-05 0.800093311884)
(-2.20352791825e-05 1.56345084423e-05 0.800094655432)
(-2.33938709648e-05 1.30314860215e-05 0.800095864817)
(-2.32595449857e-05 1.17514262565e-05 0.8000972361)
(-2.28000476791e-05 9.63143213245e-06 0.800098536165)
(-2.08865191244e-05 8.50294807028e-06 0.800099760034)
(-1.89985293855e-05 6.99153293758e-06 0.800100867525)
(-1.58132170641e-05 6.14565862308e-06 0.800101565755)
(-1.29439013007e-05 5.2470550115e-06 0.800100348235)
(-9.01771150915e-06 4.78808360469e-06 0.800085118951)
(-5.72846044556e-06 4.67925933437e-06 0.799950290573)
(-1.70465453359e-06 4.6065283669e-06 0.797270552561)
(-8.53574574995e-06 3.24535477192e-05 0.800283832958)
(-1.3885491435e-05 3.13214133806e-05 0.80028461058)
(-1.82640196987e-05 2.87670669868e-05 0.800285519966)
(-2.18077825586e-05 2.62692200693e-05 0.800286941546)
(-2.38539326728e-05 2.32143407661e-05 0.800288247427)
(-2.51771989409e-05 2.03474609367e-05 0.800289913785)
(-2.49258788192e-05 1.75697722691e-05 0.800291320454)
(-2.42652530688e-05 1.50154392249e-05 0.80029290588)
(-2.22052905244e-05 1.28543156708e-05 0.800294165076)
(-2.00457299883e-05 1.09197827243e-05 0.800295297362)
(-1.674028739e-05 9.43932003114e-06 0.800295240793)
(-1.3592571648e-05 8.25044347062e-06 0.800290382934)
(-9.57832468309e-06 7.5363728545e-06 0.800262764036)
(-6.03390241319e-06 7.22513055643e-06 0.800085123856)
(-1.80158325392e-06 6.92596621259e-06 0.797374105656)
(-9.53106174561e-06 5.13279190799e-05 0.800317426731)
(-1.54420781798e-05 4.73176403485e-05 0.800316924558)
(-2.05870894283e-05 4.5005833645e-05 0.800318928579)
(-2.41324360519e-05 3.92429954207e-05 0.800319538448)
(-2.65456954647e-05 3.57140897244e-05 0.800321598758)
(-2.75164756427e-05 3.0022379118e-05 0.80032288439)
(-2.73201588675e-05 2.65117088641e-05 0.800324741402)
(-2.6208727171e-05 2.18835788269e-05 0.800326200912)
(-2.40278706844e-05 1.90161573784e-05 0.800327692526)
(-2.14580427366e-05 1.57263819071e-05 0.800328741697)
(-1.79636697587e-05 1.37034214429e-05 0.800328460645)
(-1.44808871623e-05 1.17630093772e-05 0.80032225418)
(-1.02583095977e-05 1.07844391013e-05 0.800290494544)
(-6.40636553145e-06 1.02858815871e-05 0.800100462018)
(-1.95687412808e-06 1.00062274733e-05 0.797377394789)
(-1.1787228899e-05 6.43517447282e-05 0.800316857111)
(-1.95874097719e-05 6.13244186027e-05 0.8003188216)
(-2.55393764951e-05 5.5767100097e-05 0.800320066303)
(-3.0137163735e-05 5.00403534409e-05 0.800322963664)
(-3.21149303406e-05 4.3692428113e-05 0.800324721739)
(-3.33857843537e-05 3.76458570198e-05 0.800327653336)
(-3.218794276e-05 3.2150767e-05 0.800329480711)
(-3.09238579973e-05 2.70640923382e-05 0.800331959634)
(-2.76908480038e-05 2.29634433491e-05 0.800333529663)
(-2.47780652989e-05 1.92637115438e-05 0.800335128985)
(-2.03828041474e-05 1.65532753067e-05 0.800334833711)
(-1.65193585335e-05 1.43422686323e-05 0.800328473713)
(-1.15365463637e-05 1.30838180738e-05 0.800295407591)
(-7.3137726719e-06 1.23733451794e-05 0.800101717237)
(-2.14570391202e-06 1.18183047701e-05 0.797376757181)
(-1.46282910337e-05 8.90103039401e-05 0.800318729385)
(-2.38618129434e-05 8.11105159437e-05 0.800315876118)
(-3.16013079361e-05 7.57981097725e-05 0.800320920369)
(-3.58883478048e-05 6.46594661928e-05 0.800320835358)
(-3.8608049224e-05 5.77324925176e-05 0.800325051556)
(-3.87248877783e-05 4.74494005405e-05 0.80032659153)
(-3.75956773418e-05 4.11790434509e-05 0.800329766792)
(-3.5115443961e-05 3.33318484058e-05 0.800331751606)
(-3.15980096569e-05 2.85465291216e-05 0.800333991578)
(-2.77025103596e-05 2.32376253585e-05 0.800335474712)
(-2.28832901169e-05 2.00260687038e-05 0.800335459934)
(-1.82657352946e-05 1.69960985016e-05 0.800328991993)
(-1.28288895069e-05 1.54999346553e-05 0.80029569196)
(-7.96170794393e-06 1.46246646192e-05 0.800101230759)
(-2.40983049854e-06 1.41213689641e-05 0.79737609684)
(-1.97087128063e-05 0.000109772357113 0.800298953826)
(-3.28293266187e-05 0.000101659333102 0.800304753584)
(-4.19238834835e-05 8.99960481254e-05 0.800306521181)
(-4.81323886554e-05 7.80948947011e-05 0.800313541708)
(-4.92425277337e-05 6.61859365693e-05 0.800316067907)
(-4.98535230949e-05 5.53473978358e-05 0.800322033683)
(-4.62268046527e-05 4.60444454678e-05 0.800324595607)