/*--------------------------------*- C++ -*----------------------------------*\
| =========                 |                                                 |
| \\      /  F ield         | OpenFOAM: The Open Source CFD Toolbox           |
|  \\    /   O peration     | Version:  2406                                  |
|   \\  /    A nd           | Website:  www.openfoam.com                      |
|    \\/     M anipulation  |                                                 |
\*---------------------------------------------------------------------------*/
FoamFile
{
    version     2.0;
    format      ascii;
    arch        "LSB;label=32;scalar=64";
    class       pointScalarField;
    location    "0";
    object      motionScale;
}
// * * * * * * * * * * * * * * * * * * * * * * * * * * * * * * * * * * * * * //

dimensions      [0 0 0 0 0 0 0];

internalField   nonuniform List<scalar> 
42407
(
0
0
0
0
0
0
0
0
0
0
0
0
0
0
0
0
0
0
0
0
0
0
0
0
0
0
0
0
0
0
0
0
0
0
0
0
0
0
0
0
0
0
0
0
0
0
0
0
0
0
0
0
0
0
0
0
0
0
0
0
0
0
0
0
0
0
0
0
0
0
0
0
0
0
0
0
0
0
0
0
0
0
0
0
0
0
0
0
0
0
0
0
0
0
0
0
0
0
0
0
0
0
0
0
0
0
0
0
0
0
0
0
0
0
0
0
0
0
0
0
0
0
0
0
0
0
0
0
0
0
0
0
0
0
0
0
0
0
0
0
0
0
0
0
0
0
0
0
0
0
0
0
0
0
0
0
0
0
0
0
0
0
0
0
0
0
0
0
0
0
0
0
0
0
0
0
0
0
0
0
0
0
0
0
0
0
0
0
0
0
0
0
0
0
0
0
0
0
0
0
0
0
0
0
0
0
0
0
0
0
0
0
0
0
0
0
0
0
0
0
0
0
0
0
0
0
0
0
0
0
0
0
0
0
0
0
0
0
0
0
0
0
0
0
0
0
0
0
0
0
0
0
0
0
0
0
0
0
0
0
0
0
0
0
0
0
0
0
0
0
0
0
0
0
0
0
0
0
0
0
0
0
0
0
0
0
0
0
0
0
0
0
0
0
0
0
0
0
0
0
0
0
0
0
0
0
0
0
0
0
0
0
0
0
0
0
0
0
0
0
0
0
0
0
0
0
0
0
0
0
0
0
0
0
0
0
0
0
0
0
0
0
0
0
0
0
0
0
0
0
0
0
0
0
0
0
0
0
0
0
0
0
0
0
0
0
0
0
0
0
0
0
0
0
0
0
0
0
0
0
0
0
0
0
0
0
0
0
0
0
0
0
0
0
0
0
0
0
0
0
0
0
0
0
0
0
0
0
0
0
0
0
0
0
0
0
0
0
0
0
0
0
0
0
0
0
0
0
0
0
0
0
0
0
0
0
0
0
0
0
0
0
0
0
0
0
0
0
0
0
0
0
0
0
0
0
0
0
0
0
0
0
0
0
0
0
0
0
0
0
0
0
0
0
0
0
0
0
0
0
0
0
0
0
0
0
0
0
0
0
0
0
0
0
0
0
0
0
0
0
0
0
0
0
0
0
0
0
0
0
0
0
0
0
0
0
0
0
0
0
0
0
0
0
0
0
0
0
0
0
0
0
0
0
0
0
0
0
0
0
0
0
0
0
0
0
0
0
0
0
0
0
0
0
0
0
0
0
0
0
0
0
0
0
0
0
0
0
0
0
0
0
0
0
0
0
0
0
0
0
0
0
0
0
0
0
0
0
0
0
0
0
0
0
0
0
0
0
0
0
0
0
0
0
0
0
0
0
0
0
0
0
0
0
0
0
0
0
0
0
0
0
0
0
0
0
0
0
0
0
0
0
0
0
0
0
0
0
0
0
0
0
0
0
0
0
0
0
0
0
0
0
0
0
0
0
0
0
0
0
0
0
0
0
0
0
0
0
0
0
0
0
0
0
0
0
0
0
0
0
0
0
0
0
0
0
0
0
0
0
0
0
0
0
0
0
0
0
0
0
0
0
0
0
0
0
0
0
0
0
0
0
0
0
0
0
0
0
0
0
0
0
0
0
0
0
0
0
0
0
0
0
0
0
0
0
0
0
0
0
0
0
0
0
0
0
0
0
0
0
0
0
0
0
0
0
0
0
0
0
0
0
0
0
0
0
0
0
0
0
0
0
0
0
0
0
0
0
0
0
0
0
0
0
0
0
0
0
0
0
0
0
0
0
0
0
0
0
0
0
0
0
0
0
0
0
0
0
0
0
0
0
0
0
0
0
0
0
0
0
0
0
0
0
0
0
0
0
0
0
0
0
0
0
0
0
0
0
0
0
0
0
0
0
0
0
0
0
0
0
0
0
0
0
0
0
0
0
0
0
0
0
0
0
0
0
0
0
0
0
0
0
0
0
0
0
0
0
0
0
0
0
0
0
0
0
0
0
0
0
0
0
0
0
0
0
0
0
0
0
0
0
0
0
0
0
0
0
0
0
0
0
0
0
0
0
0
0
0
0
0
0
0
0
0
0
0
0
0
0
0
0
0
0
0
0
0
0
0
0
0
0
0
0
0
0
0
0
0
0
0
0
0
0
0
0
0
0
0
0
0
0
0
0
0
0
0
0
0
0
0
0
0
0
0
0
0
0
0
0
0
0
0
0
0
0
0
0
0
0
0
0
0
0
0
0
0
0
0
0
0
0
0
0
0
0
0
0
0
0
0
0
0
0
0
0
0
0
0
0
0
0
0
0
0
0
0
0
0
0
0
0
0
0
0
0
0
0
0
0
0
0
0
0
0
0
0
0
0
0
0
0
0
0
0
0
0
0
0
0
0
0
0
0
0
0
0
0
0
0
0
0
0
0
0
0
0
0
0
0
0
0
0
0
0
0
0
0
0
0
0
0
0
0
0
0
0
0
0
0
0
0
0
0
0
0
0
0
0
0
0
0
0
0
0
0
0
0
0
0
0
0
0
0
0
0
0
0
0
0
0
0
0
0
0
0
0
0
0
0
0
0
0
0
0
0
0
0
0
0
0
0
0
0
0
0
0
0
0
0
0
0
0
0
0
0
0
0
0
0
0
0
0
0
0
0
0
0
0
0
0
0
0
0
0
0
0
0
0
0
0
0
0
0
0
0
0
0
0
0
0
0
0
0
0
0
0
0
0
0
0
0
0
0
0
0
0
0
0
0
0
0
0
0
0
0
0
0
0
0
0
0
0
0
0
0
0
0
0
0
0
0
0
0
0
0
0
0
0
0
0
0
0
0
0
0
0
0
0
0
0
0
0
0
0
0
0
0
0
0
0
0
0
0
0
0
0
0
0
0
0
0
0
0
0
0
0
0
0
0
0
0
0
0
0
0
0
0
0
0
0
0
0
0
0
0
0
0
0
0
0
0
0
0
0
0
0
0
0
0
0
0
0
0
0
0
0
0
0
0
0
0
0
0
0
0
0
0
0
0
0
0
0
0
0
0
0
0
0
0
0
0
0
0
0
0
0
0
0
0
0
0
0
0
0
0
0
0
0
0
0
0
0
0
0
0
0
0
0
0
0
0
0
0
0
0
0
0
0
0
0
0
0
0
0
0
0
0
0
0
0
0
0
0
0
0
0
0
0
0
0
0
0
0
0
0
0
0
0
0
0
0
0
0
0
0
0
0
0
0
0
0
0
0
0
0
0
0
0
0
0
0
0
0
0
0
0
0
0
0
0
0
0
0
0
0
0
0
0
0
0
0
0
0
0
0
0
0
0
0
0
0
0
0
0
0
0
0
0
0
0
0
0
0
0
0
0
0
0
0
0
0
0
0
0
0
0
0
0
0
0
0
0
0
0
0
0
0
0
0
0
0
0
0
0
0
0
0
0
0
0
0
0
0
0
0
0
0
0
0
0
0
0
0
0
0
0
0
0
0
0
0
0
0
0
0
0
0
0
0
0
0
0
0
0
0
0
0
0
0
0
0
0
0
0
0
0
0
0
0
0
0
0
0
0
0
0
0
0
0
0
0
0
0
0
0
0
0
0
0
0
0
0
0
0
0
0
0
0
0
0
0
0
0
0
0
0
0
0
0
0
0
0
0
0
0
0
0
0
0
0
0
0
0
0
0
0
0
0
0
0
0
0
0
0
0
0
0
0
0
0
0
0
0
0
0
0
0
0
0
0
0
0
0
0
0
0
0
0
0
0
0
0
0
0
0
0
0
0
0
0
0
0
0
0
0
0
0
0
0
0
0
0
0
0
0
0
0
0
0
0
0
0
0
0
0
0
0
0
0
0
0
0
0
0
0
0
0
0
0
0
0
0
0
0
0
0
0
0
0
0
0
0
0
0
0
0
0
0
0
0
0
0
0
0
0
0
0
0
0
0
0
0
0
0
0
0
0
0
0
0
0
0
0
0
0
0
0
0
0
0
0
0
0
0
0
0
0
0
0
0
0
0
0
0
0
0
0
0
0
0
0
0
0
0
0
0
0
0
0
0
0
0
0
0
0
0
0
0
0
0
0
0
0
0
0
0
0
0
0
0
0
0
0
0
0
0
0
0
0
0
0
0
0
0
0
0
0
0
0
0
0
0
0
0
0
0
0
0
0
0
0
0
0
0
0
0
0
0
0
0
0
0
0
0
0
0
0
0
0
0
0
0
0
0
0
0
0
0
0
0
0
0
0
0
0
0
0
0
0
0
0
0
0
0
0
0
0
0
0
0
0
0
0
0
0
0
0
0
0
0
0
0
0
0
0
0
0
0
0
0
0
0
0
0
0
0
0
0
0
0
0
0
0
0
0
0
0
0
0
0
0
0
0
0
0
0
0
0
0
0
0
0
0
0
0
0
0
0
0
0
0
0
0
0
0
0
0
0
0
0
0
0
0
0
0
0
0
0
0
0
0
0
0
0
0
0
0
0
0
0
0
0
0
0
0
0
0
0
0
0
0
0
0
0
0
0
0
0
0
0
0
0
0
0
0
0
0
0
0
0
0
0
0
0
0
0
0
0
0
0
0
0
0
0
0
0
0
0
0
0
0
0
0
0
0
0
0
0
0
0
0
0
0
0
0
0
0
0
0
0
0
0
0
0
0
0
0
0
0
0
0
0
0
0
0
0
0
0
0
0
0
0
0
0
0
0
0
0
0
0
0
0
0
0
0
0
0
0
0
0
0
0
0
0
0
0
0
0
0
0
0
0
0
0
0
0
0
0
0
0
0
0
0
0
0
0
0
0
0
0
0
0
0
0
0
0
0
0
0
0
0
0
0
0
0
0
0
0
0
0
0
0
0
0
0
0
0
0
0
0
0
0
0
0
0
0
0
0
0
0
0
0
0
0
0
0
0
0
0
0
0
0
0
0
0
0
0
0
0
0
0
0
0
0
0
0
0
0
0
0
0
0
0
0
0
0
0
0
0
0
0
0
0
0
0
0
0
0
0
0
0
0
0
0
0
0
0
0
0
0
0
0
0
0
0
0
0
0
0
0
0
0
0
0
0
0
0
0
0
0
0
0
0
0
0
0
0
0
0
0
0
0
0
0
0
0
0
0
0
0
0
0
0
0
0
0
0
0
0
0
0
0
0
0
0
0
0
0
0
0
0
0
0
0
0
0
0
0
0
0
0
0
0
0
0
0
0
0
0
0
0
0
0
0
0
0
0
0
0
0
0
0
0
0
0
0
0
0
0
0
0
0
0
0
0
0
0
0
0
0
0
0
0
0
0
0
0
0
0
0
0
0
0
0
0
0
0
0
0
0
0
0
0
0
0
0
0
0
0
0
0
0
0
0
0
0
0
0
0
0
0
0
0
0
0
0
0
0
0
0
0
0
0
0
0
0
0
0
0
0
0
0
0
0
0
0
0
0
0
0
0
0
0
0
0
0
0
0
0
0
0
0
0
0
0
0
0
0
0
0
0
0
0
0
0
0
0
0
0
0
0
0
0
0
0
0
0
0
0
0
0
0
0
0
0
0
0
0
0
0
0
0
0
0
0
0
0
0
0
0
0
0
0
0
0
0
0
0
0
0
0
0
0
0
0
0
0
0
0
0
0
0
0
0
0
0
0
0
0
0
0
0
0
0
0
0
0
0
0
0
0
0
0
0
0
0
0
0
0
0
0
0
0
0
0
0
0
0
0
0
0
0
0
0
0
0
0
0
0
0
0
0
0
0
0
0
0
0
0
0
0
0
0
0
0
0
0
0
0
0
0
0
0
0
0
0
0
0
0
0
0
0
0
0
0
0
0
0
0
0
0
0
0
0
0
0
0
0
0
0
0
0
0
0
0
0
0
0
0
0
0
0
0
0
0
0
0
0
0
0
0
0
0
0
0
0
0
0
0
0
0
0
0
0
0
0
0
0
0
0
0
0
0
0
0
0
0
0
0
0
0
0
0
0
0
0
0
0
0
0
0
0
0
0
0
0
0
0
0
0
0
0
0
0
0
0
0
0
0
0
0
0
0
0
0
0
0
0
0
0
0
0
0
0
0
0
0
0
0
0
0
0
0
0
0
0
0
0
0
0
0
0
0
0
0
0
0
0
0
0
0
0
0
0
0
0
0
0
0
0
0
0
0
0
0
0
0
0
0
0
0
0
0
0
0
0
0
0
0
0
0
0
0
0
0
0
0
0
0
0
0
0
0
0
0
0
0
0
0
0
0
0
0
0
0
0
0
0
0
0
0
0
0
0
0
0
0
0
0
0
0
0
0
0
0
0
0
0
0
0
0
0
0
0
0
0
0
0
0
0
0
0
0
0
0
0
0
0
0
0
0
0
0
0
0
0
0
0
0
0
0
0
0
0
0
0
0
0
0
0
0
0
0
0
0
0
0
0
0
0
0
0
0
0
0
0
0
0
0
0
0
0
0
0
0
0
0
0
0
0
0
0
0
0
0
0
0
0
0
0
0
0
0
0
0
0
0
0
0
0
0
0
0
0
0
0
0
0
0
0
0
0
0
0
0
0
0
0
0
0
0
0
0
0
0
0
0
0
0
0
0
0
0
0
0
0
0
0
0
0
0
0
0
0
0
0
0
0
0
0
0
0
0
0
0
0
0
0
0
0
0
0
0
0
0
0
0
0
0
0
0
0
0
0
0
0
0
0
0
0
0
0
0
0
0
0
0
0
0
0
0
0
0
0
0
0
0
0
0
0
0
0
0
0
0
0
0
0
0
0
0
0
0
0
0
0
0
0
0
0
0
0
0
0
0
0
0
0
0
0
0
0
0
0
0
0
0
0
0
0
0
0
0
0
0
0
0
0
0
0
0
0
0
0
0
0
0
0
0
0
0
0
0
0
0
0
0
0
0
0
0
0
0
0
0
0
0
0
0
0
0
0
0
0
0
0
0
0
0
0
0
0
0
0
0
0
0
0
0
0
0
0
0
0
0
0
0
0
0
0
0
0
0
0
0
0
0
0
0
0
0
0
0
0
0
0
0
0
0
0
0
0
0
0
0
0
0
0
0
0
0
0
0
0
0
0
0
0
0
0
0
0
0
0
0
0
0
0
0
0
0
0
0
0
0
0
0
0
0
0
0
0
0
0
0
0
0
0
0
0
0
0
0
0
0
0
0
0
0
0
0
0
0
0
0
0
0
0
0
0
0
0
0
0
0
0
0
0
0
0
0
0
0
0
0
0
0
0
0
0
0
0
0
0
0
0
0
0
0
0
0
0
0
0
0
0
0
0
0
0
0
0
0
0
0
0
0
0
0
0
0
0
0
0
0
0
0
0
0
0
0
0
0
0
0
0
0
0
0
0
0
0
0
0
0
0
0
0
0
0
0
0
0
0
0
0
0
0
0
0
0
0
0
0
0
0
0
0
0
0
0
0
0
0
0
0
0
0
0
0
0
0
0
0
0
0
0
0
0
0
0
0
0
0
0
0
0
0
0
0
0
0
0
0
0
0
0
0
0
0
0
0
0
0
0
0
0
0
0
0
0
0
0
0
0
0
0
0
0
0
0
0
0
0
0
0
0
0
0
0
0
0
0
0
0
0
0
0
0
0
0
0
0
0
0
0
0
0
0
0
0
0
0
0
0
0
0
0
0
0
0
0
0
0
0
0
0
0
0
0
0
0
0
0
0
0
0
0
0
0
0
0
0
0
0
0
0
0
0
0
0
0
0
0
0
0
0
0
0
0
0
0
0
0
0
0
0
0
0
0
0
0
0
0
0
0
0
0
0
0
0
0
0
0
0
0
0
0
0
0
0
0
0
0
0
0
0
0
0
0
0
0
0
0
0
0
0
0
0
0
0
0
0
0
0
0
0
0
0
0
0
0
0
0
0
0
0
0
0
0
0
0
0
0
0
0
0
0
0
0
0
0
0
0
0
0
0
0
0
0
0
0
0
0
0
0
0
0
0
0
0
0
0
0
0
0
0
0
0
0
0
0
0
0
0
0
0
0
0
0
0
0
0
0
0
0
0
0
0
0
0
0
0
0
0
0
0
0
0
0
0
0
0
0
0
0
0
0
0
0
0
0
0
0
0
0
0
0
0
0
0
0
0
0
0
0
0
0
0
0
0
0
0
0
0
0
0
0
0
0
0
0
0
0
0
0
0
0
0
0
0
0
0
0
0
0
0
0
0
0
0
0
0
0
0
0
0
0
0
0
0
0
0
0
0
0
0
0
0
0
0
0
0
0
0
0
0
0
0
0
0
0
0
0
0
0
0
0
0
0
0
0
0
0
0
0
0
0
0
0
0
0
0
0
0
0
0
0
0
0
0
0
0
0
0
0
0
0
0
0
0
0
0
0
0
0
0
0
0
0
0
0
0
0
0
0
0
0
0
0
0
0
0
0
0
0
0
0
0
0
0
0
0
0
0
0
0
0
0
0
0
0
0
0
0
0
0
0
0
0
0
0
0
0
0
0
0
0
0
0
0
0
0
0
0
0
0
0
0
0
0
0
0
0
0
0
0
0
0
0
0
0
0
0
0
0
0
0
0
0
0
0
0
0
0
0
0
0
0
0
0
0
0
0
0
0
0
0
0
0
0
0
0
0
0
0
0
0
0
0
0
0
0
0
0
0
0
0
0
0
0
0
0
0
0
0
0
0
0
0
0
0
0
0
0
0
0
0
0
0
0
0
0
0
0
0
0
0
0
0
0
0
0
0
0
0
0
0
0
0
0
0
0
0
0
0
0
0
0
0
0
0
0
0
0
0
0
0
0
0
0
0
0
0
0
0
0
0
0
0
0
0
0
0
0
0
0
0
0
0
0
0
0
0
0
0
0
0
0
0
0
0
0
0
0
0
0
0
0
0
0
0
0
0
0
0
0
0
0
0
0
0
0
0
0
0
0
0
0
0
0
0
0
0
0
0
0
0
0
0
0
0
0
0
0
0
0
0
0
0
0
0
0
0
0
0
0
0
0
0
0
0
0
0
0
0
0
0
0
0
0
0
0
0
0
0
0
0
0
0
0
0
0
0
0
0
0
0
0
0
0
0
0
0
0
0
0
0
0
0
0
0
0
0
0
0
0
0
0
0
0
0
0
0
0
0
0
0
0
0
0
0
0
0
0
0
0
0
0
0
0
0
0
0
0
0
0
0
0
0
0
0
0
0
0
0
0
0
0
0
0
0
0
0
0
0
0
0
0
0
0
0
0
0
0
0
0
0
0
0
0
0
0
0
0
0
0
0
0
0
0
0
0
0
0
0
0
0
0
0
0
0
0
0
0
0.553835194637
0.567427259237
0.580267909785
0.592317458661
0.603539927446
0.613901869782
0.623371630351
0.631921281275
0.639525625424
0.64616168655
0.651810120463
0.656454430573
0.660080708876
0.662678510551
0.66424020803
0.664761232484
0.590047404563
0.604185361488
0.617536967251
0.630061815062
0.641723332605
0.652487553166
0.662322341256
0.671199398117
0.679093219155
0.685980557338
0.691841879762
0.696660544594
0.700422523984
0.703117303495
0.704737205015
0.705277631949
0.624967622122
0.639619297251
0.653451336813
0.666422693418
0.67849628066
0.689637695766
0.699814413721
0.708997856706
0.717162306925
0.724284342745
0.730344334657
0.735325582481
0.739214017425
0.741999120577
0.743673212997
0.744231701312
0.658322667437
0.67345340443
0.687732969573
0.701119753667
0.71357623821
0.725067673671
0.735561244737
0.745028198518
0.753442714346
0.760781311959
0.767024379754
0.77215527001
0.776159975645
0.779028059777
0.780751909478
0.781326976655
0.689853151517
0.705426008794
0.720117978647
0.733886964968
0.746695097517
0.758507371256
0.769290786623
0.779016531953
0.787658812607
0.795194230635
0.801603337104
0.80686968145
0.81097945593
0.813922424665
0.815691134141
0.816281141021
0.719315658418
0.73529165449
0.750358917096
0.764474927828
0.777601536857
0.789703570728
0.800747953755
0.810705941794
0.819551914945
0.827262729188
0.833819283771
0.839205518841
0.843408016561
0.846416912125
0.848225047808
0.848828173202
0.746484807334
0.762823229047
0.778226968331
0.792653129489
0.806063336475
0.818422319245
0.82969702584
0.839858908237
0.848882686944
0.856745678405
0.863429369314
0.86891835489
0.87319989095
0.876264711586
0.87810617497
0.878720372619
0.773408230734
0.789842580183
0.803514018431
0.81821211166
0.831869642835
0.844451283399
0.855924076781
0.866259783398
0.875433633596
0.883423642937
0.890212191029
0.89578489398
0.900130072975
0.903239481448
0.905107321444
0.905730245016
0.795613762363
0.812323221315
0.828043584717
0.842731959644
0.856350290691
0.867602090694
0.879239462628
0.889717397083
0.899011771384
0.907101546991
0.913970556124
0.919605376237
0.923996576563
0.927137360271
0.929023773873
0.929652640585
0.814975101805
0.831916937127
0.847849359807
0.862729024729
0.876517564716
0.889180215264
0.900685022703
0.911005600108
0.919451651306
0.927611793304
0.93453379198
0.940206402996
0.94462280895
0.947779288854
0.949673310488
0.950304636596
0.831354128083
0.848486010074
0.864590287161
0.879623021634
0.893545342507
0.906322101431
0.91792114854
0.928316221178
0.937484461232
0.945408950765
0.952461864861
0.957444811016
0.961861178266
0.965012026167
0.966900503664
0.967529542479
0.844637315993
0.861918044998
0.878155400754
0.893304693511
0.907326300778
0.920184339037
0.93184599563
0.942284546862
0.951477058779
0.95975238083
0.96639447895
0.971613789919
0.97591726636
0.978954975141
0.980577122787
0.981196524481
0.854735607399
0.872125743734
0.888459656496
0.903691803135
0.91778160442
0.930692089491
0.942389222707
0.952844966109
0.962035092616
0.969942582445
0.976830221763
0.981980932918
0.986149120411
0.988946651715
0.990720508
0.991201478185
0.861583642467
0.879045841021
0.895442539306
0.91072740312
0.924858881855
0.937798820422
0.949511637929
0.959967318771
0.969139078573
0.97700666862
0.983773121486
0.988980820986
0.992874700536
0.995503558084
0.997042102035
0.997468672876
0.865138525925
0.882637377116
0.899065693232
0.914376633164
0.928528021625
0.94148082981
0.953198319336
0.963648817167
0.972803088643
0.980637122386
0.987293900545
0.992413406061
0.996169664257
0.998573432686
0.865378520666
0.8828798266
0.899310254171
0.914622923911
0.928775608515
0.9417292183
0.953446924142
0.963896922212
0.973049769484
0.980881113225
0.987370001535
0.992595039566
0.996312689245
0.997335526838
0.996419082379
0.997444969189
0.99753859626
0.996630419933
0.999718968147
0.99995324143
0.999919638212
0.999957968554
1
1
0.998817565951
0.999185033182
0.999950850324
1
1
0.999117199876
1
0.999287972483
0.998974551476
0.99999992144
1
1
1
0.99963056142
1
0.999847121332
0.999902458739
1
1
1
1
1
1
0.999979302133
1
1
1
1
1
1
1
1
1
1
1
0.999996095279
0.999997068658
1
1
1
1
1
0.99825494729
0.999541367458
0.999832041017
1
1
0.999526060987
1
0.999753762828
1
1
1
0.997975266983
1
1
1
0.542856957703
0.537932882574
0.532128983103
0.525463440166
0.517957823104
0.509635839001
0.500523764621
0.490651310724
0.480049906585
0.468753339523
0.456798779505
0.556280833915
0.55128090686
0.545387269986
0.538618220072
0.530995472971
0.522542894958
0.513286942813
0.503257543415
0.492486352753
0.481007406905
0.468858164853
0.568963989831
0.563893024283
0.557915337465
0.55104933156
0.543316856328
0.53474192377
0.525351155914
0.515174678825
0.504244357762
0.492594458939
0.480262709444
0.580866966534
0.575729880092
0.569673954818
0.562717688009
0.55488305093
0.546194188047
0.536677872069
0.526364411456
0.515285863428
0.503476705801
0.490974912883
0.591953977061
0.586755774852
0.580627527078
0.573587816142
0.5656587227
0.556864510708
0.547232089261
0.536791932655
0.525576272971
0.51361978126
0.500960658253
0.602191745166
0.596937510386
0.590742949455
0.583626720229
0.57561100098
0.566720162529
0.556981236399
0.546424846448
0.535083382773
0.522991691507
0.510188179143
0.611548774526
0.606243663567
0.599988886559
0.59280316755
0.584708771045
0.575730162506
0.565894482292
0.555232487878
0.543776710817
0.531562154408
0.518627410394
0.619997263619
0.614646491469
0.608337666007
0.601089568654
0.592924539226
0.58386712604
0.573944565134
0.56318773202
0.551629283496
0.539304362377
0.526251725353
0.6275121229
0.622120954756
0.61576430914
0.608461016509
0.600233481539
0.591106324104
0.581106863205
0.570266077222
0.558616732327
0.546194093512
0.533037062314
0.634070472823
0.628644219225
0.622246036688
0.614894796864
0.606612959334
0.597425204707
0.587358922692
0.57644517976
0.564716835952
0.552209261375
0.538961482531
0.639653040511
0.634197045849
0.627763650947
0.620371761295
0.612043881913
0.602804743814
0.59268179561
0.581706177496
0.569910828223
0.557331206256
0.544006443396
0.644243386663
0.63876302277
0.632300773714
0.624875571937
0.616509958901
0.607228706144
0.597059309805
0.586032969811
0.574182688803
0.561543997117
0.548156112394
0.647827651557
0.642328313477
0.635843597013
0.628392455085
0.619997457017
0.610683405398
0.600477832899
0.589411985518
0.577518915252
0.564834208061
0.551397148146
0.65039542137
0.64488251933
0.638381741059
0.630912053834
0.622496046613
0.613158543905
0.602927104234
0.591833006292
0.579909337147
0.567191722341
0.5537194935
0.651939091362
0.646418046794
0.639907626245
0.632426805498
0.623998185181
0.614646602847
0.604399632432
0.593288572158
0.58134653006
0.568609155364
0.555115808107
0.652454105792
0.646930346596
0.640416711374
0.632932178724
0.624499353143
0.615143076516
0.604890927898
0.593774212008
0.581826043853
0.569082080544
0.55558169158
0.578624435899
0.573499766403
0.567458534182
0.560519218904
0.55270376926
0.544036305084
0.53454357103
0.524255841535
0.513205137987
0.501425898661
0.488956051615
0.592591651313
0.58738994779
0.581257556468
0.574213064542
0.566278558844
0.557478310084
0.547839235085
0.537391817558
0.526168299524
0.514203363033
0.501535221727
0.605783484425
0.600509682693
0.594291963321
0.587149009895
0.579103034129
0.570178443524
0.56040231173
0.549805314247
0.538419895809
0.526280963204
0.513426994351
0.61815974938
0.612818886165
0.606521790159
0.5992872305
0.591137530839
0.582097221684
0.572193518479
0.561457271276
0.549921109835
0.537620146822
0.524593103241
0.629684054793
0.624281249942
0.617910828227
0.610591633917
0.602346090048
0.593198836789
0.583177216733
0.57231223761
0.560636696844
0.548185894394
0.534998773331
0.640322591048
0.634863037049
0.628425427853
0.621028672933
0.612695282675
0.603449994056
0.593320262673
0.582337237481
0.5705338666
0.557945619021
0.544611639108
0.650043366389
0.644532322598
0.638033744812
0.630566598357
0.622153469513
0.612819179802
0.602591284217
0.591501056984
0.579581580378
0.566868474525
0.553401064564
0.658818190933
0.653260968076
0.646707703064
0.639177408388
0.630692735431
0.621278578644
0.610962579442
0.59977612191
0.587752406434
0.574927186788
0.561339948673
0.666621648608
0.661023599767
0.654421980828
0.646835843467
0.638287894096
0.628803089187
0.618409144252
0.607137538419
0.595021574651
0.582097123314
0.568403810786
0.673430569122
0.667797084531
0.661153490808
0.653518871577
0.644915978942
0.635369821206
0.624908176331
0.613562604256
0.601366495513
0.588355820422
0.574570326465
0.679225470652
0.67356196613
0.666882808912
0.659207108085
0.650557652851
0.64095949388
0.630440460601
0.619032180126
0.606768116058
0.593684322457
0.579820648658
0.683989749188
0.678301660049
0.671593375496
0.663884024299
0.655196424883
0.645555661496
0.634989604685
0.623529935661
0.611210177069
0.59806645089
0.584138689351
0.687709407442
0.682002185013
0.675271229862
0.667535685314
0.658818391779
0.64914445891
0.638541788588
0.62704210353
0.614678971825
0.601488567892
0.58751088814
0.69037394691
0.684653051584
0.677905894678
0.670151629493
0.661413111723
0.651715468777
0.641086624555
0.629558331109
0.61716418872
0.603940409051
0.589927034196
0.691975700838
0.686246599566
0.679489718557
0.671724216923
0.662972959358
0.65326108376
0.642616527093
0.63107105888
0.618658298611
0.605414480205
0.591379673103
0.692510078532
0.686778241825
0.680018119233
0.672248871775
0.663493367116
0.653776746622
0.643126951588
0.631575757335
0.619156789738
0.605906290122
0.591864337029
0.613125837721
0.607812183469
0.60154729425
0.594349904994
0.586242294453
0.577248943744
0.567397011277
0.55671727675
0.545242295274
0.533007096366
0.520050302727
0.627604695372
0.622213030895
0.615855797701
0.608551826841
0.600323523778
0.591195509253
0.581195103276
0.570353285482
0.558702823379
0.546278983451
0.53312066901
0.641275167076
0.635810552013
0.629366950402
0.621963277349
0.613622050848
0.60436801633
0.594228639295
0.583235081139
0.571420303276
0.558819789651
0.545472702475
0.654096416721
0.648564007516
0.642040128756
0.634543767948
0.626097541857
0.616726306099
0.606457655985
0.595322916871
0.583355225942
0.57059026539
0.557067434826
0.666031525437
0.660436556014
0.653838584518
0.646256659759
0.637713484082
0.628234009367
0.617845945615
0.606580764856
0.594471762379
0.581554799807
0.56786949295
0.677046230496
0.671394000296
0.664728199786
0.657067928667
0.648435962391
0.638857335885
0.62835985941
0.616975134992
0.604736598914
0.591680273888
0.57784597108
0.687108130016
0.681403996822
0.674676702149
0.66694538702
0.658232888339
0.648564311704
0.637967553976
0.626474331207
0.614118204179
0.60093533887
0.586965721345
0.696188731015
0.690438094077
0.683655691549
0.675860697149
0.667075998553
0.657326760579
0.64664095392
0.635050393463
0.622588748689
0.609292311593
0.595201223122
0.704262377415
0.698470667373
0.691639583066
0.683788323336
0.674939816993
0.665119277649
0.654354738001
0.642678097418
0.630123119004
0.616726204117
0.602527629024
0.711305695625
0.705478368598
0.698605061535
0.69070499194
0.681801121229
0.671918702435
0.661085819401
0.64933444248
0.636698414046
0.623214228759
0.608922279076
0.7172990777
0.711441603435
0.704532551613
0.696591153074
0.68764039443
0.677705559826
0.666814774366
0.655000066735
0.642295344944
0.628737181468
0.614366066253
0.722225832401
0.716343688499
0.709405381986
0.701430152815
0.692441006461
0.682463250894
0.671525043516
0.659658459485
0.646897459488
0.633278678857
0.618842686727
0.72607189482
0.720170564179
0.713209501876
0.705207953765
0.696188938836
0.686177782516
0.67520266637
0.663295700885
0.650490887047
0.636824908555
0.622338395756
0.728826739084
0.7229117045
0.715934387382
0.707914037131
0.698873681741
0.688838658509
0.677837165728
0.665901338667
0.653065206723
0.639365487859
0.624842855939
0.730482680017
0.724559423816
0.717572353986
0.709540721778
0.700487560325
0.690438213796
0.679420890299
0.667467739788
0.654612808557
0.640892835006
0.626348519028
0.731035119055
0.725109122699
0.718118802301
0.710083409679
0.701025979633
0.690971858582
0.67994925787
0.667990332311
0.655129133806
0.641402407547
0.626850862088
0.646089965213
0.640599820085
0.634125989166
0.62668741551
0.618306655
0.609008495236
0.598820451243
0.587773746745
0.575901409868
0.563238999663
0.549825768111
0.661046342243
0.655477438947
0.648910340332
0.641364070349
0.632861296374
0.623426930847
0.613088636609
0.601877825143
0.589827726362
0.576974127551
0.563356554782
0.675163092482
0.669520619315
0.662866377548
0.655219458591
0.646602625813
0.637040900355
0.626562075733
0.615197732123
0.602981282047
0.589948720988
0.576139826999
0.688398807057
0.68268804437
0.675952894261
0.668212502675
0.65948971401
0.649809642551
0.639200195911
0.627693104429
0.61532194455
0.602122900357
0.588135980102
0.700716118931
0.694942417722
0.688132679472
0.680306092463
0.671485567918
0.661696298479
0.650966290042
0.639327405271
0.626813366504
0.613460527377
0.599309104999
0.712080397161
0.706249164959
0.699371227967
0.691465805548
0.68255586251
0.672666656036
0.661826275421
0.650066698667
0.637421776727
0.623928014402
0.609625816821
0.722458922543
0.716575614034
0.709635926356
0.70165909985
0.692668140841
0.682688358385
0.671747911375
0.659878877136
0.647115218815
0.633493574695
0.619054517635
0.731822994487
0.725893092501
0.718898138855
0.71085738614
0.701793871491
0.691732944498
0.680702821079
0.668735662954
0.655865529991
0.642129177049
0.627567325013
0.740146816643
0.734175820216
0.727132108338
0.719034938657
0.709907369943
0.699774782429
0.688665437822
0.676611568477
0.663647316492
0.649809537196
0.635139080402
0.747406915584
0.741400332641
0.734314385005
0.726168329853
0.716985240052
0.706790518128
0.69561246172
0.683483361254
0.670437427564
0.65651160113
0.641746842153
0.753583657927
0.747546992693
0.740425331801
0.732237928165
0.723007862892
0.712760554008
0.701524326627
0.689331517867
0.676216394781
0.662215968436
0.647371291436
0.758660361563
0.752599108901
0.745448250582
0.737227033171
0.727958541801
0.717668204719
0.706384367388
0.694139403364
0.680967624305
0.666906097996
0.651995951944
0.762622982496
0.756542626452
0.749369077875
0.741121576495
0.73182320877
0.721499409277
0.710178537902
0.69789299539
0.684677127188
0.670568044529
0.655606932734
0.765461041408
0.759367051964
0.752177307263
0.74391104107
0.73459133978
0.724243641577
0.71289631587
0.700581782183
0.6873344096
0.673191340026
0.658193799833
0.767166891535
0.761064727384
0.753865270127
0.745587749509
0.736255251463
0.725893215961
0.714530017803
0.702198087518
0.688931808167
0.674768339911
0.659748933655
0.767735962068
0.76163107418
0.754428380583
0.746147109603
0.736810346947
0.726443533122
0.715075044668
0.702737315738
0.689464734018
0.675294465726
0.660267769932
0.677259246229
0.67160591319
0.664938806167
0.657277025792
0.648643348869
0.639062811875
0.628563226954
0.617176198594
0.604935165757
0.591876154227
0.578038978907
0.692656795115
0.686924207574
0.680163195212
0.672392919568
0.663636249121
0.653918326187
0.643267093244
0.631714327208
0.6192936557
0.606041322078
0.591997407382
0.707185324764
0.701378809331
0.694530174648
0.68665862768
0.677787111152
0.6679408554
0.657147914688
0.645440218156
0.632851562081
0.619418386783
0.605181016956
0.720802928645
0.714927899105
0.707998029655
0.700032557796
0.691054483728
0.681089108708
0.670164580964
0.658312962369
0.645568198519
0.631966906695
0.61754963325
0.733471870282
0.727533803375
0.720529163278
0.712477204036
0.703400967515
0.69332580979
0.682279956225
0.670295582868
0.65740676616
0.643650281099
0.629066874311
0.745157237676
0.739161655866
0.732088766231
0.7239578266
0.71479190597
0.704616400416
0.693459596857
0.681353768085
0.668333103938
0.654434518763
0.639698938758
0.75582609315
0.749778551888
0.742643976654
0.734441617886
0.725194558783
0.714928222173
0.703670942412
0.691455072932
0.67831490067
0.664287461889
0.649413842398
0.765449634187
0.759355699459
0.752166019763
0.743899828892
0.734580213241
0.724232610983
0.712885391488
0.700570974208
0.687323728131
0.67318079504
0.658183401143
0.77400203873
0.767867271918
0.760629069077
0.752306640355
0.742923066537
0.732503791792
0.721077209936
0.708675793411
0.695333979534
0.681089000237
0.665982203676
0.781459856489
0.775289804344
0.768009648796
0.759638571852
0.750199642293
0.739718303156
0.728222964083
0.715746139121
0.702322321516
0.687988818981
0.672787083867
0.787803552531
0.781603732833
0.774288167695
0.765876009143
0.756390310084
0.745856507579
0.734303020453
0.721762394607
0.708269168092
0.693860710991
0.678578562737
0.793016575886
0.786792471312
0.779448005315
0.771002300778
0.76147839338
0.750901711591
0.739300678681
0.726707864195
0.713157841055
0.698688029147
0.683340038425
0.797085018208
0.790842075975
0.78347518279
0.775003435778
0.765449854379
0.754839857932
0.743201871145
0.730568480374
0.716974284511
0.702456741403
0.687057515404
0.799998544742
0.793742176302
0.786359293397
0.777868972986
0.768294221306
0.757660449791
0.745996083049
0.733333718567
0.719707973155
0.705156331356
0.689720496147
0.801749623569
0.795485212027
0.788092748155
0.779591296073
0.77000385343
0.759355826344
0.747675638895
0.734995894892
0.721351221637
0.706779119523
0.691321314607
0.802333760049
0.796066669886
0.788671014858
0.780165854683
0.77057418403
0.75992140715
0.748235947866
0.735550412035
0.721899430411
0.707320508644
0.691855380467
0.706391879757
0.700589379881
0.693745505385
0.685879461081
0.677014185969
0.667174905897
0.656389669321
0.644690397344
0.632110877275
0.618687538892
0.604460693774
0.722192274875
0.716310298658
0.709372191009
0.701397191828
0.692408306464
0.682430842732
0.671492957819
0.659626726571
0.646866109319
0.633247740972
0.618812190126
0.737096173598
0.731140202156
0.72411431903
0.716037780684
0.706933638616
0.696827262442
0.685746897641
0.673724751173
0.660794935419
0.646994269234
0.632363555471
0.751061239655
0.745036837332
0.737929735977
0.729759190689
0.720548279644
0.710322414933
0.699109910806
0.686943085619
0.673856183724
0.659886187568
0.64507411219
0.764049440403
0.757962226856
0.750780532056
0.742523592847
0.733214495763
0.722878677293
0.711544502195
0.699244380725
0.68601267027
0.671886497526
0.656907068484
0.776025667687
0.769881296253
0.762631675992
0.754296010141
0.744897376907
0.734461220758
0.723015940324
0.710594019771
0.697229911933
0.682960869565
0.667828269294
0.786956866742
0.780761006601
0.773450152483
0.765043460757
0.755563986763
0.745037168637
0.733491424215
0.72095929534
0.707475314233
0.693076842762
0.67780540882
0.796814247152
0.790572555433
0.783207151304
0.77473713369
0.76518552319
0.754577739819
0.742942208247
0.730311513755
0.716720253543
0.702205882953
0.686810062739
0.805572091142
0.799290192254
0.791876891473
0.78335122296
0.77373616384
0.76305710711
0.751342474455
0.738624882499
0.724938980725
0.710322303615
0.694816627272
0.813207117579
0.806890588076
0.799435997269
0.790862310982
0.781192457679
0.77045179762
0.758668742395
0.745875930084
0.732108051462
0.71740270704
0.701801771553
0.819700043727
0.813354394146
0.805865052985
0.797250918271
0.787534868402
0.776742228498
0.764901395701
0.752045021846
0.738207829628
0.723427473585
0.707745911033
0.825034606909
0.81866527367
0.811147646042
0.802500559025
0.792746843396
0.781911790011
0.770023779887
0.757115472952
0.743221615913
0.72837990628
0.712632368418
0.829197186709
0.822809532359
0.815270006601
0.806597390282
0.796814472664
0.78594651428
0.774021880775
0.761073236332
0.747135345002
0.732245936974
0.716447088486
0.832177726754
0.82577704348
0.818221935443
0.809531141865
0.799727419796
0.788836006041
0.776885253678
0.763907828808
0.749938507151
0.735015041855
0.719179546086
0.83396891626
0.827560440228
0.819996008155
0.811294333049
0.801478151565
0.790572685406
0.778606279462
0.765611600523
0.751623431025
0.736679537741
0.720822055955
0.834566404995
0.828155335847
0.820587800402
0.811882502719
0.802062172469
0.79115202618
0.779180405897
0.766179978565
0.752185528809
0.737234827922
0.721370018551
0.733263852329
0.727326814827
0.720323395995
0.712272849707
0.703198217243
0.693124853871
0.682080983775
0.670098781203
0.657212320513
0.643458374169
0.628877685556
0.749427093001
0.743410651385
0.736313000751
0.728153397285
0.718954916942
0.708742967676
0.697545856433
0.68539588919
0.672327295401
0.65837703882
0.643586110025
0.764668326767
0.758578141221
0.751392915703
0.743131885735
0.733818137817
0.723477109206
0.712137166717
0.699830724691
0.686592145655
0.672458562985
0.657471191618
0.77894484174
0.772786654608
0.76552060839
0.757165895411
0.747745589278
0.7372851341
0.725812934775
0.713361491813
0.699965279987
0.68566158175
0.670491814536
0.792218369505
0.785997972756
0.778657920167
0.77021733936
0.760699268908
0.750129138816
0.738535371865
0.725950534127
0.712409193303
0.697948761736
0.682610838644
0.804453680686
0.798176888322
0.790769673044
0.782251078059
0.772644086753
0.761974096182
0.75026952891
0.737562997952
0.723889146405