/*--------------------------------*- C++ -*----------------------------------*\
| =========                 |                                                 |
| \\      /  F ield         | OpenFOAM: The Open Source CFD Toolbox           |
|  \\    /   O peration     | Version:  2406                                  |
|   \\  /    A nd           | Website:  www.openfoam.com                      |
|    \\/     M anipulation  |                                                 |
\*---------------------------------------------------------------------------*/
FoamFile
{
    version     2.0;
    format      ascii;
    arch        "LSB;label=32;scalar=64";
    class       volScalarField;
    location    "0.01";
    object      k;
}
// * * * * * * * * * * * * * * * * * * * * * * * * * * * * * * * * * * * * * //

dimensions      [0 2 -2 0 0 0 0];

internalField   nonuniform List<scalar> 
29768
(
0.23995982679
0.239959806944
0.239959806162
0.239959806141
0.239959806146
0.239959806156
0.239959806169
0.23995980619
0.239959806221
0.239959806149
0.239959801742
0.239959662937
0.239956451049
0.239885351966
0.237441099168
0.239959806945
0.239959787116
0.239959786335
0.239959786314
0.239959786319
0.23995978633
0.239959786342
0.239959786364
0.239959786394
0.239959786323
0.23995978191
0.239959642989
0.239956429597
0.239885323556
0.237441079475
0.239959806162
0.239959786335
0.239959785554
0.239959785533
0.239959785538
0.239959785549
0.239959785562
0.239959785583
0.239959785614
0.239959785543
0.239959781131
0.239959642209
0.239956428824
0.239885323093
0.237441079566
0.239959806141
0.239959786314
0.239959785533
0.239959785513
0.239959785518
0.239959785528
0.239959785541
0.239959785563
0.239959785594
0.239959785522
0.239959781112
0.239959642189
0.239956428808
0.23988532309
0.237441079651
0.239959806146
0.239959786319
0.239959785538
0.239959785518
0.239959785523
0.239959785534
0.239959785547
0.239959785568
0.239959785601
0.239959785529
0.239959781121
0.239959642197
0.239956428824
0.239885323092
0.237441079979
0.239959806157
0.23995978633
0.239959785549
0.239959785528
0.239959785534
0.239959785544
0.239959785558
0.239959785579
0.239959785612
0.23995978554
0.239959781134
0.239959642208
0.239956428838
0.239885323101
0.237441080088
0.239959806169
0.239959786342
0.239959785562
0.239959785541
0.239959785547
0.239959785558
0.239959785572
0.239959785594
0.239959785629
0.239959785557
0.239959781157
0.239959642229
0.239956428879
0.239885323111
0.237441080936
0.239959806191
0.239959786364
0.239959785583
0.239959785563
0.239959785569
0.239959785579
0.239959785594
0.239959785615
0.239959785651
0.239959785578
0.23995978118
0.23995964225
0.239956428902
0.239885323122
0.23744108093
0.239959806221
0.239959786395
0.239959785614
0.239959785594
0.239959785601
0.239959785612
0.239959785629
0.239959785651
0.239959785692
0.239959785619
0.239959781236
0.2399596423
0.239956429002
0.239885323173
0.237441083246
0.23995980615
0.239959786323
0.239959785543
0.239959785522
0.239959785529
0.23995978554
0.239959785557
0.239959785578
0.239959785619
0.239959785545
0.239959781162
0.239959642227
0.239956428944
0.239885323146
0.237441082516
0.239959801742
0.239959781911
0.239959781131
0.239959781112
0.239959781121
0.239959781134
0.239959781157
0.23995978118
0.239959781236
0.239959781162
0.239959776819
0.239959637927
0.239956425496
0.239885323069
0.2374410889
0.239959662937
0.23995964299
0.239959642209
0.239959642189
0.239959642197
0.239959642208
0.239959642229
0.23995964225
0.239959642301
0.239959642228
0.239959637927
0.2399595003
0.239956305222
0.239885300441
0.237441082717
0.239956451049
0.239956429597
0.239956428824
0.239956428808
0.239956428824
0.239956428838
0.239956428879
0.239956428902
0.239956429002
0.239956428943
0.239956425495
0.239956305222
0.239953361376
0.239884263579
0.2374409218
0.239885351967
0.239885323556
0.239885323094
0.23988532309
0.239885323092
0.239885323101
0.23988532311
0.239885323121
0.239885323173
0.239885323144
0.239885323068
0.23988530044
0.239884263578
0.239840922986
0.237433281325
0.237441099166
0.237441079481
0.237441079573
0.237441079657
0.237441079971
0.237441080087
0.237441080935
0.237441080929
0.237441083245
0.237441082515
0.237441088891
0.23744108272
0.2374409218
0.237433281325
0.237409485752
0.239957833871
0.239957812005
0.239957811139
0.239957811111
0.239957811111
0.239957811112
0.239957811114
0.239957811116
0.239957811117
0.239957811006
0.239957806045
0.239957656261
0.239954225342
0.239879333343
0.237417992423
0.239957812005
0.239957790158
0.239957789293
0.239957789266
0.239957789266
0.239957789267
0.239957789269
0.239957789271
0.239957789272
0.239957789161
0.239957784194
0.239957634286
0.239954201776
0.239879302805
0.23741797493
0.239957811139
0.239957789293
0.239957788429
0.239957788402
0.239957788402
0.239957788403
0.239957788405
0.239957788407
0.239957788407
0.239957788297
0.23995778333
0.239957633421
0.239954200919
0.239879302313
0.237417975083
0.239957811111
0.239957789266
0.239957788402
0.239957788374
0.239957788374
0.239957788375
0.239957788378
0.239957788379
0.239957788379
0.239957788269
0.239957783302
0.239957633393
0.239954200894
0.239879302306
0.237417975216
0.239957811111
0.239957789266
0.239957788402
0.239957788374
0.239957788374
0.239957788375
0.239957788378
0.239957788379
0.239957788379
0.239957788269
0.239957783302
0.239957633393
0.239954200892
0.239879302285
0.237417973953
0.239957811112
0.239957789267
0.239957788403
0.239957788375
0.239957788375
0.239957788376
0.239957788379
0.23995778838
0.239957788381
0.239957788271
0.239957783304
0.239957633395
0.239954200894
0.239879302311
0.237417975857
0.239957811115
0.239957789269
0.239957788405
0.239957788378
0.239957788378
0.239957788379
0.239957788381
0.239957788383
0.239957788384
0.239957788273
0.239957783306
0.239957633398
0.239954200897
0.239879302315
0.237417977039
0.239957811116
0.239957789271
0.239957788407
0.239957788379
0.239957788379
0.23995778838
0.239957788383
0.239957788386
0.239957788386
0.239957788275
0.239957783308
0.2399576334
0.239954200898
0.239879302321
0.23741797701
0.239957811118
0.239957789272
0.239957788407
0.23995778838
0.23995778838
0.239957788381
0.239957788384
0.239957788386
0.239957788386
0.239957788275
0.239957783308
0.239957633401
0.239954200899
0.239879302346
0.237417979874
0.239957811007
0.239957789161
0.239957788297
0.239957788269
0.23995778827
0.239957788271
0.239957788273
0.239957788275
0.239957788276
0.239957788165
0.239957783198
0.239957633295
0.239954200812
0.239879302336
0.237417979027
0.239957806045
0.239957784194
0.23995778333
0.239957783303
0.239957783303
0.239957783304
0.239957783306
0.239957783308
0.239957783308
0.239957783198
0.239957778235
0.239957628387
0.239954196752
0.239879301947
0.237417983084
0.239957656262
0.239957634286
0.239957633421
0.239957633394
0.239957633394
0.239957633395
0.239957633398
0.2399576334
0.239957633401
0.239957633295
0.239957628387
0.239957479957
0.239954067495
0.239879278002
0.237417977097
0.239954225342
0.239954201776
0.239954200919
0.239954200893
0.239954200893
0.239954200895
0.239954200897
0.239954200899
0.239954200899
0.239954200811
0.239954196753
0.239954067494
0.239950929095
0.239878167375
0.23741781763
0.239879333335
0.239879302779
0.239879302285
0.239879302281
0.239879302304
0.239879302313
0.239879302315
0.239879302327
0.239879302346
0.239879302338
0.239879301973
0.23987927799
0.239878167374
0.239832414364
0.237410169081
0.237417992249
0.237417973336
0.237417973489
0.237417973627
0.237417975594
0.23741797578
0.237417976961
0.237417977136
0.237417979869
0.237417979095
0.2374179848
0.237417976648
0.237417817629
0.237410169081
0.23738715915
0.239957801065
0.23995777915
0.239957778279
0.239957778251
0.239957778251
0.239957778252
0.239957778254
0.239957778259
0.239957778262
0.239957778142
0.239957773181
0.239957623157
0.239954190582
0.239879285347
0.237417899414
0.23995777915
0.239957757253
0.239957756386
0.239957756358
0.239957756358
0.239957756359
0.239957756361
0.239957756364
0.239957756365
0.239957756247
0.23995775128
0.239957601132
0.23995416697
0.239879254806
0.237417882967
0.239957778279
0.239957756386
0.23995775552
0.239957755492
0.239957755492
0.239957755493
0.239957755495
0.239957755496
0.239957755497
0.23995775538
0.239957750414
0.239957600265
0.239954166111
0.23987925432
0.23741788318
0.239957778251
0.239957756358
0.239957755492
0.239957755465
0.239957755464
0.239957755466
0.239957755467
0.239957755468
0.23995775547
0.239957755351
0.239957750387
0.239957600238
0.239954166085
0.23987925431
0.237417883403
0.239957778251
0.239957756358
0.239957755492
0.239957755464
0.239957755464
0.239957755465
0.239957755467
0.239957755468
0.239957755469
0.239957755352
0.239957750386
0.239957600238
0.239954166082
0.239879254263
0.237417880657
0.239957778253
0.239957756359
0.239957755493
0.239957755466
0.239957755465
0.239957755467
0.239957755467
0.23995775547
0.239957755471
0.239957755354
0.239957750387
0.239957600239
0.239954166085
0.239879254317
0.237417884322
0.239957778255
0.239957756361
0.239957755495
0.239957755467
0.239957755467
0.239957755467
0.23995775547
0.239957755474
0.239957755475
0.239957755357
0.239957750389
0.239957600241
0.239954166088
0.239879254323
0.237417885516
0.239957778259
0.239957756365
0.239957755497
0.239957755469
0.239957755468
0.23995775547
0.239957755474
0.239957755477
0.239957755478
0.239957755359
0.23995775039
0.239957600242
0.239954166089
0.239879254332
0.237417885804
0.239957778262
0.239957756365
0.239957755498
0.23995775547
0.239957755469
0.239957755471
0.239957755475
0.239957755478
0.239957755478
0.239957755357
0.239957750389
0.239957600242
0.239954166088
0.239879254354
0.237417888136
0.239957778143
0.239957756247
0.23995775538
0.239957755352
0.239957755352
0.239957755354
0.239957755357
0.239957755359
0.239957755357
0.239957755236
0.239957750269
0.239957600123
0.239954165992
0.239879254346
0.237417888276
0.239957773181
0.239957751281
0.239957750414
0.239957750387
0.239957750386
0.239957750388
0.239957750389
0.239957750391
0.239957750389
0.239957750269
0.239957745304
0.239957595219
0.239954161932
0.239879253909
0.237417888458
0.239957623157
0.239957601133
0.239957600266
0.239957600238
0.239957600238
0.239957600239
0.239957600241
0.239957600242
0.239957600242
0.239957600123
0.239957595219
0.239957446538
0.239954032494
0.239879229952
0.237417885348
0.239954190582
0.23995416697
0.239954166111
0.239954166085
0.239954166085
0.239954166086
0.239954166088
0.239954166089
0.239954166088
0.239954165992
0.239954161932
0.239954032493
0.239950892811
0.239878118894
0.237417716406
0.239879285344
0.239879254777
0.239879254284
0.239879254276
0.239879254311
0.239879254323
0.239879254324
0.23987925434
0.239879254356
0.239879254347
0.239879253934
0.239879229934
0.23987811889
0.23983235885
0.237410075814
0.237417899303
0.237417880929
0.237417881141
0.237417881371
0.237417883789
0.237417884152
0.2374178854
0.237417885911
0.237417888205
0.237417888266
0.237417889707
0.237417884768
0.237417716405
0.237410075814
0.237387042378
0.239957801334
0.239957779416
0.239957778543
0.239957778513
0.239957778514
0.239957778515
0.239957778516
0.239957778524
0.239957778528
0.23995777841
0.239957773452
0.239957623424
0.239954191012
0.239879288129
0.237417929272
0.239957779416
0.239957757516
0.239957756649
0.239957756621
0.23995775662
0.239957756621
0.239957756622
0.239957756628
0.239957756628
0.239957756512
0.23995775155
0.2399576014
0.239954167418
0.239879258328
0.237417920655
0.239957778542
0.239957756649
0.239957755782
0.239957755755
0.239957755753
0.239957755755
0.239957755755
0.239957755756
0.239957755759
0.239957755644
0.239957750683
0.239957600533
0.239954166564
0.239879258636
0.237417920897
0.239957778513
0.239957756621
0.239957755755
0.239957755727
0.239957755726
0.239957755727
0.239957755728
0.239957755728
0.239957755731
0.239957755615
0.239957750655
0.239957600505
0.239954166536
0.239879257829
0.237417921135
0.239957778514
0.23995775662
0.239957755754
0.239957755726
0.239957755725
0.239957755726
0.239957755725
0.239957755727
0.23995775573
0.239957755615
0.239957750654
0.239957600503
0.239954166507
0.239879256756
0.237417914587
0.239957778515
0.239957756621
0.239957755755
0.239957755727
0.239957755726
0.239957755726
0.239957755726
0.23995775573
0.239957755732
0.239957755618
0.239957750656
0.239957600505
0.239954166535
0.239879258058
0.237417922125
0.239957778516
0.239957756622
0.239957755755
0.239957755728
0.239957755725
0.239957755726
0.239957755728
0.239957755734
0.239957755736
0.23995775562
0.239957750656
0.239957600503
0.239954166542
0.239879258106
0.237417923138
0.239957778524
0.239957756628
0.239957755758
0.239957755728
0.239957755726
0.23995775573
0.239957755734
0.239957755736
0.239957755739
0.239957755622
0.239957750657
0.239957600503
0.239954166544
0.239879258634
0.237417923253
0.239957778528
0.239957756628
0.239957755759
0.239957755731
0.23995775573
0.239957755732
0.239957755736
0.239957755739
0.23995775574
0.239957755619
0.239957750652
0.239957600504
0.239954166544
0.2398792586
0.237417925301
0.23995777841
0.239957756512
0.239957755645
0.239957755616
0.239957755616
0.239957755618
0.23995775562
0.239957755622
0.239957755619
0.239957755493
0.239957750532
0.239957600382
0.239954166445
0.239879258031
0.23741792607
0.239957773452
0.23995775155
0.239957750684
0.239957750656
0.239957750655
0.239957750656
0.239957750656
0.239957750658
0.239957750652
0.239957750532
0.239957745571
0.239957595486
0.239954162349
0.239879256675
0.237417919753
0.239957623424
0.239957601401
0.239957600533
0.239957600505
0.239957600504
0.239957600506
0.239957600503
0.239957600504
0.239957600504
0.239957600383
0.239957595486
0.239957446805
0.239954032954
0.239879234146
0.237417916842
0.239954191009
0.23995416742
0.239954166565
0.239954166531
0.239954166536
0.23995416654
0.239954166546
0.239954166547
0.239954166543
0.239954166438
0.239954162349
0.23995403293
0.239950893386
0.239878123043
0.237417753303
0.239879288135
0.239879259028
0.239879258552
0.239879258469
0.239879258608
0.239879258562
0.239879258633
0.239879258649
0.239879258518
0.239879257464
0.239879256813
0.239879232728
0.239878121182
0.239832363593
0.237410111556
0.237417929141
0.237417915696
0.237417915925
0.237417916182
0.23741792089
0.237417921306
0.237417922766
0.237417923177
0.237417925844
0.237417925477
0.237417924009
0.237417916168
0.23741775329
0.237410111556
0.237387083695
0.239957800654
0.239957778734
0.239957777862
0.239957777836
0.239957777834
0.239957777835
0.239957777835
0.239957777838
0.239957777839
0.239957777714
0.23995777276
0.23995762273
0.239954190288
0.239879288142
0.237417899084
0.239957778734
0.239957756833
0.239957755966
0.239957755938
0.23995775594
0.239957755942
0.23995775594
0.23995775594
0.239957755939
0.239957755816
0.239957750855
0.23995760069
0.239954166671
0.23987925834
0.237417898636
0.239957777864
0.239957755966
0.239957755104
0.239957755076
0.239957755075
0.239957755076
0.239957755072
0.239957755073
0.23995775507
0.239957754947
0.239957749987
0.239957599819
0.239954165791
0.239879258165
0.23741789882
0.239957777839
0.239957755939
0.239957755076
0.239957755049
0.239957755047
0.239957755047
0.239957755045
0.239957755046
0.239957755042
0.239957754919
0.23995774996
0.239957599793
0.239954165793
0.239879257847
0.23741789907
0.239957777835
0.239957755945
0.239957755075
0.239957755047
0.239957755045
0.239957755044
0.239957755044
0.239957755046
0.239957755041
0.239957754918
0.239957749958
0.239957599793
0.239954165989
0.239879256813
0.237417904531
0.239957777835
0.23995775594
0.239957755074
0.239957755047
0.239957755044
0.239957755045
0.239957755045
0.239957755044
0.239957755044
0.239957754922
0.23995774996
0.239957599794
0.239954165794
0.239879258043
0.237417899855
0.239957777842
0.23995775594
0.239957755075
0.239957755045
0.239957755044
0.239957755045
0.239957755044
0.239957755045
0.239957755046
0.239957754921
0.239957749962
0.239957599796
0.239954165784
0.239879258102
0.237417901267
0.239957777839
0.23995775594
0.239957755072
0.239957755046
0.239957755044
0.239957755044
0.239957755045
0.239957755049
0.239957755052
0.239957754922
0.239957749964
0.239957599793
0.239954165764
0.2398792582
0.237417900172
0.239957777839
0.239957755939
0.23995775507
0.239957755043
0.239957755041
0.239957755044
0.239957755045
0.239957755052
0.239957755048
0.239957754922
0.239957749962
0.239957599793
0.239954165813
0.239879258578
0.237417876564
0.239957777714
0.239957755816
0.239957754948
0.239957754922
0.239957754919
0.239957754922
0.239957754921
0.239957754922
0.239957754922
0.239957754794
0.239957749836
0.239957599708
0.239954166392
0.239879258023
0.237417898502
0.23995777276
0.239957750855
0.239957749988
0.23995774996
0.239957749959
0.239957749961
0.239957749962
0.239957749964
0.239957749962
0.239957749836
0.239957744912
0.239957595022
0.239954162331
0.239879256684
0.237417883035
0.239957622725
0.239957600689
0.23995759982
0.239957599792
0.239957599792
0.239957599806
0.239957599797
0.239957599793
0.239957599794
0.239957599712
0.23995759502
0.239957446353
0.239954032449
0.239879233666
0.237417881141
0.23995419029
0.239954166652
0.239954165793
0.239954165773
0.239954165774
0.239954165938
0.239954165799
0.239954165765
0.239954165811
0.239954166386
0.239954162338
0.239954032913
0.23995089335
0.239878121464
0.237417736684
0.239879288146
0.23987925865
0.239879258166
0.239879257527
0.239879258045
0.239879258019
0.239879258576
0.239879258135
0.239879258533
0.239879257477
0.239879256853
0.239879232739
0.239878121229
0.239832363687
0.237410096661
0.237417898141
0.237417894385
0.23741789458
0.237417894818
0.237417875184
0.237417875366
0.237417873096
0.237417878017
0.237417899826
0.23741789642
0.237417910825
0.237417880489
0.237417736686
0.237410096661
0.237387022379
0.239957800629
0.239957778717
0.239957777848
0.239957777821
0.239957777819
0.23995777782
0.239957777822
0.239957777823
0.239957777821
0.239957777692
0.239957772735
0.239957622675
0.23995419028
0.239879289781
0.237417888214
0.239957778716
0.239957756823
0.239957755957
0.239957755929
0.239957755928
0.239957755929
0.239957755928
0.239957755929
0.239957755927
0.239957755797
0.239957750836
0.239957600659
0.239954166644
0.239879259449
0.237417898797
0.239957777848
0.239957755957
0.239957755095
0.239957755063
0.239957755062
0.239957755062
0.239957755061
0.239957755061
0.23995775506
0.239957754931
0.239957749969
0.239957599793
0.239954165763
0.23987925822
0.237417898979
0.23995777782
0.23995775593
0.239957755063
0.239957755036
0.239957755034
0.239957755034
0.239957755034
0.239957755033
0.239957755032
0.239957754903
0.239957749942
0.239957599767
0.239954165769
0.239879258966
0.237417899229
0.23995777782
0.239957755936
0.23995775506
0.239957755034
0.239957755032
0.239957755033
0.239957755034
0.239957755033
0.239957755031
0.239957754901
0.239957749939
0.239957599766
0.239954166
0.239879259014
0.237417910996
0.239957777822
0.239957755929
0.239957755062
0.239957755034
0.239957755033
0.239957755035
0.239957755033
0.239957755033
0.239957755033
0.239957754903
0.23995774994
0.239957599765
0.239954165772
0.239879258929
0.237417900009
0.23995777783
0.239957755928
0.239957755063
0.239957755034
0.239957755034
0.239957755033
0.239957755033
0.239957755033
0.239957755031
0.239957754902
0.23995774994
0.239957599767
0.239954165769
0.239879258956
0.237417901389
0.239957777824
0.239957755929
0.239957755063
0.239957755036
0.239957755032
0.239957755033
0.239957755033
0.239957755033
0.239957755028
0.239957754901
0.239957749938
0.239957599768
0.239954165748
0.239879258237
0.237417900295
0.239957777822
0.239957755927
0.239957755061
0.239957755033
0.239957755031
0.239957755033
0.239957755031
0.239957755029
0.239957755027
0.239957754898
0.239957749937
0.239957599768
0.239954165793
0.239879258902
0.237417874367
0.239957777693
0.239957755797
0.239957754932
0.239957754905
0.239957754901
0.2399577549
0.239957754902
0.239957754901
0.239957754898
0.23995775477
0.23995774981
0.239957599681
0.239954166406
0.239879258976
0.237417897685
0.239957772734
0.239957750835
0.239957749969
0.239957749942
0.239957749939
0.23995774994
0.239957749941
0.239957749939
0.239957749938
0.239957749811
0.239957744884
0.239957594966
0.239954162373
0.239879258318
0.237417871187
0.239957622688
0.23995760066
0.239957599792
0.239957599766
0.239957599766
0.239957599774
0.239957599768
0.23995759977
0.239957599769
0.239957599682
0.239957594952
0.239957446311
0.239954032371
0.239879233705
0.237417868608
0.239954190272
0.239954166615
0.239954165763
0.239954165732
0.239954165748
0.239954165661
0.239954165775
0.239954165743
0.239954165798
0.239954166406
0.239954162386
0.239954032943
0.239950893386
0.239878121237
0.237417737947
0.239879289793
0.239879258698
0.239879258215
0.239879257568
0.239879258096
0.239879258041
0.239879258871
0.239879258185
0.239879259008
0.239879259002
0.239879258576
0.239879234392
0.239878123486
0.239832367048
0.23741009983
0.237417887614
0.237417894616
0.237417894809
0.237417895048
0.2374178715
0.237417872056
0.237417872793
0.23741787809
0.237417899985
0.23741789665
0.237417916884
0.237417868623
0.23741773796
0.23741009983
0.237387022404
0.239957801287
0.239957779393
0.239957778526
0.239957778491
0.239957778436
0.239957778438
0.239957778498
0.239957778505
0.239957778504
0.239957778372
0.239957773392
0.239957622953
0.239954190826
0.23987928854
0.237417898022
0.239957779393
0.239957757505
0.239957756638
0.239957756608
0.239957756598
0.239957756596
0.239957756604
0.239957756609
0.23995775661
0.239957756471
0.239957751495
0.239957601158
0.239954167301
0.239879257558
0.237417909474
0.239957778522
0.239957756637
0.239957755767
0.239957755738
0.239957755731
0.239957755734
0.239957755738
0.239957755733
0.239957755744
0.239957755612
0.239957750641
0.239957600352
0.239954166362
0.239879258972
0.237417909673
0.239957778488
0.239957756608
0.239957755732
0.239957755704
0.239957755702
0.23995775571
0.239957755711
0.239957755705
0.239957755716
0.239957755588
0.239957750614
0.239957600324
0.239954166258
0.239879257038
0.237417909805
0.239957778497
0.239957756601
0.239957755647
0.239957755696
0.239957755707
0.23995775571
0.23995775571
0.239957755711
0.239957755715
0.239957755577
0.239957750603
0.239957600289
0.239954166249
0.239879256776
0.237417888319
0.239957778504
0.239957756604
0.239957755731
0.239957755709
0.23995775571
0.239957755711
0.239957755707
0.239957755709
0.239957755713
0.239957755571
0.239957750601
0.239957600275
0.239954166423
0.239879257021
0.237417910413
0.239957778505
0.239957756606
0.239957755739
0.239957755712
0.23995775571
0.239957755707
0.239957755709
0.239957755713
0.239957755702
0.239957755578
0.239957750591
0.23995760031
0.239954166472
0.23987925705
0.237417910644
0.239957778504
0.239957756611
0.239957755744
0.239957755713
0.239957755706
0.239957755709
0.239957755713
0.239957755692
0.239957755576
0.239957755553
0.239957750518
0.239957600412
0.239954166521
0.239879258795
0.237417909401
0.239957778504
0.23995775661
0.239957755744
0.239957755717
0.239957755714
0.239957755709
0.239957755702
0.239957755576
0.239957755671
0.239957755511
0.239957750576
0.239957600375
0.23995416645
0.239879256946
0.237417904744
0.239957778373
0.23995775647
0.239957755611
0.239957755584
0.239957755571
0.23995775552
0.239957755574
0.239957755553
0.239957755511
0.239957755409
0.239957750396
0.2399576001
0.239954165688
0.239879257748
0.237417897619
0.239957773393
0.239957751474
0.239957750628
0.239957750613
0.239957750606
0.239957750596
0.239957750592
0.239957750519
0.239957750576
0.239957750398
0.239957745303
0.239957594792
0.239954161608
0.239879257769
0.237417879949
0.239957623185
0.239957601185
0.239957600324
0.239957600333
0.239957600332
0.239957600258
0.239957600286
0.239957600414
0.239957600373
0.239957600084
0.239957594783
0.239957446086
0.239954032144
0.239879234433
0.237417877909
0.239954190768
0.239954167338
0.239954166498
0.239954166431
0.239954166447
0.239954165814
0.239954166449
0.239954166514
0.239954166457
0.239954165686
0.239954161631
0.239954032161
0.239950892539
0.23987812157
0.237417690054
0.239879289141
0.239879259409
0.239879258968
0.239879258816
0.239879258917
0.239879258612
0.239879257006
0.239879258951
0.239879257079
0.239879257047
0.239879258445
0.23987923307
0.239878121052
0.239832364806
0.23741005173
0.237417897358
0.237417905359
0.237417905503
0.237417905682
0.237417899666
0.237417900094
0.23741790709
0.237417908401
0.237417911694
0.237417912395
0.237417872466
0.237417877783
0.237417690044
0.237410051729
0.237387055601
0.239957798579
0.239957778558
0.239957778001
0.239957777839
0.239957777863
0.239957777906
0.239957777839
0.239957777835
0.239957777832
0.239957777704
0.23995777275
0.239957622734
0.239954190825
0.239879288472
0.237417921302
0.23995777865
0.239957757034
0.239957755976
0.239957755954
0.239957755948
0.239957756011
0.239957755944
0.239957755947
0.239957755954
0.239957755811
0.239957750844
0.239957600691
0.239954167282
0.239879257253
0.237417871289
0.239957777954
0.239957755975
0.239957755129
0.239957755239
0.239957755114
0.239957755085
0.239957755077
0.239957755114
0.239957755077
0.239957754953
0.239957749978
0.239957599818
0.239954165808
0.239879256814
0.237417871377
0.239957777853
0.239957755953
0.239957755277
0.239957755106
0.239957755073
0.239957755049
0.239957755049
0.2399577551
0.239957755063
0.239957755125
0.239957749965
0.239957599787
0.239954166233
0.239879256739
0.237417871521
0.239957777837
0.239957755943
0.239957755162
0.239957755073
0.239957755049
0.239957755044
0.239957755066
0.239957755631
0.239957755078
0.23995775508
0.239957749969
0.239957599845
0.239954166246
0.239879256764
0.237417888531
0.239957777852
0.23995775594
0.239957755081
0.239957755047
0.239957755043
0.239957755046
0.239957755054
0.239957755067
0.239957755042
0.239957754926
0.239957749984
0.239957600237
0.239954166413
0.239879256763
0.237417872017
0.239957777836
0.23995775594
0.239957755072
0.239957755043
0.239957755045
0.239957755052
0.239957755045
0.239957755055
0.23995775504
0.239957754913
0.239957749953
0.239957599817
0.239954166269
0.239879256776
0.237417872276
0.239957777838
0.239957755968
0.239957755072
0.239957755045
0.23995775505
0.239957755044
0.239957755054
0.23995775524
0.239957755066
0.239957754918
0.239957749947
0.239957599791
0.239954165818
0.239879258733
0.237417871601
0.239957777831
0.239957755938
0.239957755069
0.239957755058
0.239957755044
0.239957755039
0.23995775504
0.239957755067
0.239957755043
0.23995775491
0.239957749959
0.239957600071
0.239954166426
0.239879256808
0.237417874499
0.239957777703
0.239957755821
0.239957754959
0.239957755125
0.239957754926
0.239957754911
0.239957754914
0.239957754917
0.23995775491
0.239957754786
0.239957749867
0.23995760008
0.239954165665
0.239879257768
0.237417897723
0.239957772748
0.239957750849
0.239957749999
0.239957749966
0.239957749956
0.239957749995
0.23995774997
0.23995774995
0.239957749959
0.239957749945
0.239957745282
0.239957594821
0.239954161591
0.239879257801
0.237417900875
0.239957622742
0.239957600707
0.239957599803
0.239957599776
0.239957599795
0.239957600219
0.239957599825
0.239957599801
0.239957599899
0.239957600064
0.239957594822
0.239957446103
0.239954032161
0.239879232744
0.237417900663
0.239954190761
0.239954167273
0.23995416579
0.239954165771
0.239954165748
0.239954165922
0.239954166219
0.239954165779
0.239954166422
0.239954165657
0.239954161612
0.239954032141
0.239950892517
0.239878121541
0.237417689659
0.23987928918
0.23987925729
0.239879256778
0.239879256844
0.239879256815
0.239879257365
0.239879256786
0.239879256862
0.239879256772
0.239879256756
0.239879258539
0.239879233056
0.239878121039
0.239832364844
0.237410051086
0.237417920214
0.237417869372
0.237417869458
0.237417869632
0.237417872026
0.237417872051
0.237417874665
0.237417875656
0.237417872915
0.237417872011
0.237417872239
0.237417900083
0.237417689649
0.237410051085
0.237387012972
0.239957559611
0.239957711189
0.239957773246
0.2399577776
0.239957777812
0.239957777885
0.239957777827
0.239957777824
0.239957777819
0.23995777769
0.239957772736
0.239957622713
0.239954190974
0.239879289727
0.237417888676
0.239957721702
0.239957749187
0.239957755451
0.239957755891
0.239957755929
0.239957755969
0.239957755928
0.239957755935
0.239957755928
0.239957755797
0.239957750834
0.239957600677
0.239954167307
0.239879257423
0.237417870019
0.239957773957
0.239957755484
0.239957755061
0.23995775498
0.239957755016
0.239957755062
0.239957755068
0.239957755095
0.239957755064
0.239957754943
0.239957749968
0.239957599787
0.239954165783
0.23987925679
0.237417870097
0.239957777656
0.239957755886
0.239957755147
0.239957755002
0.239957754976
0.239957755028
0.239957755039
0.239957755081
0.23995775505
0.239957755024
0.239957749953
0.239957599757
0.239954166274
0.239879259025
0.237417870206
0.239957777818
0.239957755934
0.239957755146
0.239957755006
0.239957755026
0.239957755034
0.239957755058
0.239957755631
0.239957755065
0.239957755072
0.239957749959
0.239957599841
0.239954166487
0.239879259074
0.237417887157
0.239957777838
0.23995775593
0.239957755069
0.239957755029
0.239957755033
0.239957755037
0.23995775504
0.239957755054
0.239957755034
0.239957754913
0.239957749952
0.239957600243
0.239954166487
0.23987925906
0.237417870522
0.239957777824
0.239957755928
0.239957755059
0.239957755034
0.239957755036
0.239957755025
0.239957755034
0.239957755046
0.239957755029
0.239957754899
0.239957749939
0.239957599801
0.239954166273
0.239879259071
0.237417870599
0.239957777827
0.239957755961
0.239957755064
0.239957755037
0.239957755036
0.239957755032
0.239957755045
0.239957755121
0.239957755027
0.239957754897
0.239957749916
0.239957599779
0.239954165812
0.239879258935
0.237417869806
0.23995777782
0.239957755929
0.239957755061
0.239957755048
0.239957755032
0.23995775503
0.239957755029
0.239957755028
0.239957755011
0.239957754877
0.239957749944
0.239957600001
0.239954166498
0.239879259115
0.237417872858
0.239957777691
0.239957755808
0.239957754946
0.23995775506
0.239957754914
0.239957754887
0.239957754896
0.239957754897
0.239957754877
0.239957754771
0.239957749821
0.239957600118
0.239954166424
0.239879259385
0.237417910225
0.239957772733
0.239957750832
0.239957749983