/*--------------------------------*- C++ -*----------------------------------*\
| =========                 |                                                 |
| \\      /  F ield         | OpenFOAM: The Open Source CFD Toolbox           |
|  \\    /   O peration     | Version:  2406                                  |
|   \\  /    A nd           | Website:  www.openfoam.com                      |
|    \\/     M anipulation  |                                                 |
\*---------------------------------------------------------------------------*/
FoamFile
{
    version     2.0;
    format      ascii;
    arch        "LSB;label=32;scalar=64";
    class       volScalarField;
    location    "0.01";
    object      nut;
}
// * * * * * * * * * * * * * * * * * * * * * * * * * * * * * * * * * * * * * //

dimensions      [0 2 -1 0 0 0 0];

internalField   nonuniform List<scalar> 
29768
(
0.134843503116
0.134843493989
0.13484349366
0.13484349365
0.134843493649
0.134843493649
0.134843493645
0.134843493451
0.13484348318
0.13484301496
0.134825391295
0.134305080779
0.123606776357
0.0452070954905
0.00182275324248
0.134843493989
0.134843484854
0.134843484525
0.134843484515
0.134843484515
0.134843484514
0.134843484511
0.134843484317
0.134843474042
0.134843005701
0.134825378658
0.134305002984
0.123606078956
0.0452066337156
0.00182275316681
0.13484349366
0.134843484525
0.134843484196
0.134843484187
0.134843484186
0.134843484186
0.134843484182
0.134843483988
0.134843473713
0.134843005366
0.134825378149
0.134304999252
0.123606047408
0.0452066206555
0.00182275316716
0.13484349365
0.134843484515
0.134843484187
0.134843484177
0.134843484176
0.134843484176
0.134843484172
0.134843483978
0.134843473703
0.134843005356
0.134825378132
0.134304999125
0.12360604656
0.0452066217435
0.00182275316749
0.134843493649
0.134843484515
0.134843484186
0.134843484176
0.134843484175
0.134843484175
0.134843484171
0.134843483977
0.134843473702
0.134843005355
0.134825378131
0.13430499911
0.123606046138
0.0452066197652
0.00182275316875
0.134843493649
0.134843484514
0.134843484186
0.134843484176
0.134843484175
0.134843484175
0.134843484171
0.134843483977
0.134843473702
0.134843005355
0.13482537813
0.134304999122
0.123606046575
0.0452066224741
0.00182275316917
0.134843493645
0.134843484511
0.134843484182
0.134843484172
0.134843484171
0.134843484171
0.134843484167
0.134843483973
0.134843473698
0.134843005351
0.134825378127
0.134304999133
0.123606046349
0.0452066212739
0.00182275317243
0.134843493451
0.134843484317
0.134843483988
0.134843483978
0.134843483977
0.134843483977
0.134843483973
0.13484348378
0.134843473504
0.134843005157
0.134825377932
0.134304998913
0.123606046012
0.0452066216842
0.0018227531724
0.13484348318
0.134843474042
0.134843473713
0.134843473703
0.134843473703
0.134843473702
0.134843473698
0.134843473504
0.134843463229
0.134842994882
0.134825367672
0.134304989055
0.123606042268
0.0452066399695
0.0018227531813
0.134843014961
0.134843005701
0.134843005366
0.134843005356
0.134843005355
0.134843005355
0.134843005351
0.134843005157
0.134842994882
0.134842526548
0.134824899771
0.134304531675
0.123605727417
0.045206599338
0.0018227531785
0.134825391295
0.134825378658
0.134825378149
0.134825378132
0.134825378131
0.13482537813
0.134825378126
0.134825377931
0.134825367671
0.134824899769
0.134807286704
0.134287280839
0.123593662327
0.0452066022756
0.00182275320303
0.134305080768
0.134305002974
0.134304999254
0.134304999117
0.13430499911
0.134304999109
0.134304999107
0.134304998898
0.13430498904
0.134304531648
0.134287280825
0.133776209834
0.123217322064
0.0451973482263
0.00182275317927
0.123606776199
0.123606078811
0.123606047387
0.123606046426
0.123606046101
0.123606046401
0.123606046031
0.123606045812
0.123606042069
0.123605727091
0.123593662135
0.123217321897
0.114894860888
0.0447934805567
0.00182275256094
0.0452070951551
0.0452066333812
0.0452066204554
0.0452066214017
0.0452066195456
0.0452066220948
0.0452066207312
0.0452066212798
0.0452066395622
0.0452065987809
0.0452066018627
0.0451973478187
0.0447934801644
0.0325369376011
0.00182272320179
0.00182275324248
0.00182275316683
0.00182275316719
0.00182275316751
0.00182275316872
0.00182275316917
0.00182275317242
0.0018227531724
0.0018227531813
0.00182275317849
0.00182275320299
0.00182275317928
0.00182275256094
0.00182272320179
0.00163061393249
0.134844450885
0.134844440873
0.134844440513
0.134844440503
0.134844440502
0.134844440502
0.134844440498
0.134844440285
0.134844428948
0.13484391409
0.134824639025
0.134260333744
0.122860095976
0.0435809464592
0.00182266445153
0.134844440873
0.134844430853
0.134844430492
0.134844430482
0.134844430481
0.134844430481
0.134844430478
0.134844430264
0.134844418923
0.13484390393
0.134824625076
0.134260246903
0.122859324306
0.0435804575966
0.00182266438431
0.134844440513
0.134844430492
0.134844430132
0.134844430121
0.134844430121
0.134844430121
0.134844430117
0.134844429903
0.134844418562
0.134843903562
0.134824624514
0.134260242761
0.122859289751
0.0435804443873
0.0018226643849
0.134844440503
0.134844430482
0.134844430121
0.134844430111
0.13484443011
0.13484443011
0.134844430107
0.134844429893
0.134844418552
0.134843903551
0.134824624496
0.134260242619
0.122859288773
0.0435804450563
0.00182266438541
0.134844440502
0.134844430481
0.134844430121
0.13484443011
0.134844430109
0.13484443011
0.134844430106
0.134844429892
0.134844418551
0.13484390355
0.134824624496
0.134260242632
0.122859288735
0.0435804438982
0.00182266438055
0.134844440502
0.134844430481
0.134844430121
0.13484443011
0.13484443011
0.13484443011
0.134844430106
0.134844429893
0.134844418551
0.134843903551
0.134824624496
0.134260242633
0.122859288983
0.043580445644
0.00182266438787
0.134844440499
0.134844430478
0.134844430117
0.134844430107
0.134844430106
0.134844430106
0.134844430102
0.134844429889
0.134844418547
0.134843903546
0.134824624493
0.134260242626
0.122859288556
0.0435804433973
0.00182266439241
0.134844440285
0.134844430264
0.134844429904
0.134844429893
0.134844429892
0.134844429893
0.134844429889
0.134844429675
0.134844418334
0.134843903333
0.134824624279
0.134260242422
0.12285928881
0.043580445887
0.0018226643923
0.134844428948
0.134844418923
0.134844418562
0.134844418552
0.134844418551
0.134844418551
0.134844418548
0.134844418334
0.134844406992
0.134843891993
0.134824612955
0.134260231473
0.122859282454
0.0435804476127
0.00182266440331
0.13484391409
0.13484390393
0.134843903562
0.134843903551
0.13484390355
0.134843903551
0.134843903547
0.134843903333
0.134843891993
0.134843377009
0.134824098509
0.134259729482
0.122858950138
0.0435804408864
0.00182266440005
0.134824639024
0.134824625075
0.134824624514
0.134824624496
0.134824624494
0.134824624496
0.134824624492
0.134824624277
0.134824612954
0.134824098508
0.134804838484
0.134240883615
0.122845966891
0.0435803030258
0.00182266441564
0.134260333727
0.13426024689
0.134260242753
0.134260242617
0.13426024259
0.134260242621
0.134260242612
0.134260242392
0.13426023145
0.134259729461
0.13424088363
0.133687176483
0.122444313434
0.0435712544236
0.00182266439264
0.122860095751
0.122859324127
0.122859289618
0.122859288711
0.122859288231
0.122859288783
0.122859288349
0.122859288443
0.122859282174
0.122858949834
0.122845966988
0.122444313589
0.1136857658
0.043166079256
0.00182266377984
0.0435809460597
0.0435804572476
0.0435804440481
0.0435804448365
0.0435804431277
0.0435804452037
0.0435804429483
0.0435804452902
0.0435804471513
0.0435804402855
0.0435803028558
0.0435712543367
0.0431660791479
0.0311835944024
0.00182263438824
0.00182266445086
0.00182266437818
0.00182266437877
0.0018226643793
0.00182266438686
0.00182266438757
0.00182266439211
0.00182266439278
0.00182266440329
0.00182266440031
0.00182266442223
0.00182266439091
0.00182266377984
0.00182263438824
0.00163261857164
0.134844473834
0.134844463804
0.134844463444
0.134844463433
0.134844463432
0.134844463433
0.134844463428
0.134844463215
0.13484445185
0.13484393582
0.134824621276
0.134259351484
0.12284638753
0.0435651624232
0.00182266409412
0.134844463805
0.134844453765
0.134844453404
0.134844453393
0.134844453393
0.134844453394
0.13484445339
0.134844453175
0.134844441807
0.134843925639
0.134824607293
0.134259264349
0.122845613438
0.0435646725149
0.00182266403092
0.134844463443
0.134844453404
0.134844453043
0.134844453033
0.134844453033
0.134844453034
0.134844453029
0.134844452813
0.134844441445
0.134843925271
0.134824606732
0.134259260229
0.122845579177
0.043564659863
0.00182266403174
0.134844463433
0.134844453394
0.134844453033
0.134844453023
0.134844453023
0.134844453023
0.13484445302
0.134844452803
0.134844441436
0.13484392526
0.134824606712
0.134259260061
0.122845577961
0.0435646603049
0.00182266403259
0.134844463433
0.134844453393
0.134844453033
0.134844453023
0.134844453022
0.134844453021
0.134844453019
0.134844452802
0.134844441434
0.134843925259
0.134824606713
0.134259259946
0.122845578323
0.0435646601589
0.00182266402204
0.134844463432
0.134844453393
0.134844453033
0.134844453022
0.134844453021
0.134844453023
0.134844453027
0.134844452803
0.134844441435
0.134843925259
0.134824606713
0.134259260097
0.122845578423
0.0435646612957
0.00182266403612
0.134844463429
0.13484445339
0.134844453029
0.134844453018
0.134844453019
0.134844453023
0.134844453015
0.134844452802
0.134844441432
0.134843925257
0.134824606713
0.134259260119
0.122845578385
0.0435646601212
0.00182266404071
0.134844463215
0.134844453175
0.134844452814
0.134844452805
0.134844452802
0.134844452803
0.134844452803
0.134844452606
0.134844441233
0.134843925046
0.134824606507
0.134259259739
0.122845578495
0.0435646629325
0.00182266404182
0.13484445185
0.134844441807
0.134844441445
0.134844441435
0.134844441434
0.134844441437
0.134844441451
0.13484444122
0.134844429853
0.134843913696
0.134824595158
0.134259248928
0.122845572161
0.0435646648385
0.00182266405078
0.13484393582
0.134843925639
0.134843925271
0.134843925261
0.13484392526
0.13484392526
0.134843925258
0.134843925045
0.134843913695
0.134843397535
0.134824079534
0.134258745658
0.122845239714
0.0435646604808
0.00182266405132
0.134824621275
0.134824607293
0.134824606732
0.134824606713
0.134824606708
0.134824606714
0.13482460671
0.134824606498
0.13482459515
0.134824079531
0.134804778867
0.134239861597
0.122832234213
0.0435645170957
0.00182266405202
0.134259351467
0.134259264348
0.13425926022
0.13425926006
0.134259259853
0.134259260097
0.134259260076
0.13425925985
0.13425924853
0.134258745615
0.13423986203
0.133685226689
0.122430077408
0.0435554801591
0.00182266404007
0.122846387306
0.122845613412
0.122845579031
0.122845577879
0.122845577298
0.122845578371
0.122845577811
0.122845577916
0.122845571589
0.122845239126
0.1228322346
0.122430077632
0.113664572116
0.0431503049721
0.00182266339087
0.0435651618557
0.0435646723261
0.0435646595141
0.0435646601288
0.0435646588517
0.0435646611075
0.0435646591748
0.0435646618789
0.0435646644132
0.0435646594079
0.0435645169247
0.0435554803935
0.043150305024
0.0311723759857
0.00182263402984
0.00182266409369
0.00182266402309
0.0018226640239
0.00182266402479
0.00182266403408
0.00182266403547
0.00182266404027
0.00182266404223
0.00182266405104
0.00182266405128
0.00182266405682
0.00182266403784
0.00182266339086
0.00182263402984
0.00163546447543
0.134844474532
0.134844464506
0.134844464145
0.134844464134
0.134844464134
0.134844464135
0.134844464129
0.134844463917
0.134844452554
0.134843936521
0.134824621874
0.134259352298
0.122846495498
0.0435662564664
0.00182266420886
0.134844464506
0.134844454466
0.134844454105
0.134844454095
0.134844454095
0.134844454099
0.134844454095
0.134844453878
0.13484444251
0.13484392634
0.134824607903
0.134259265393
0.122845724443
0.0435657660391
0.00182266417574
0.134844464145
0.134844454104
0.134844453744
0.134844453738
0.134844453738
0.134844453741
0.134844453731
0.134844453515
0.134844442148
0.134843925972
0.134824607356
0.134259261665
0.122845692788
0.0435657555956
0.00182266417667
0.134844464133
0.134844454063
0.134844453734
0.134844453728
0.134844453727
0.134844453727
0.13484445369
0.134844453504
0.134844442141
0.134843925961
0.134824607324
0.134259261223
0.122845689708
0.0435657539075
0.00182266417759
0.134844464134
0.134844454094
0.134844453738
0.134844453727
0.134844453691
0.134844453723
0.134844453717
0.134844453504
0.134844442138
0.134843925959
0.134824607267
0.134259259812
0.122845680376
0.0435657526653
0.00182266415242
0.134844464133
0.134844454082
0.134844453736
0.134844453726
0.134844453723
0.134844453729
0.134844453737
0.134844453507
0.134844442139
0.134843925961
0.134824607335
0.134259262238
0.12284569903
0.0435657560073
0.00182266418139
0.13484446413
0.134844454093
0.134844453734
0.134844453721
0.134844453724
0.134844453729
0.134844453719
0.134844453508
0.134844442138
0.134843925959
0.134824607339
0.134259262272
0.122845698811
0.0435657548968
0.00182266418529
0.134844463918
0.134844453878
0.134844453517
0.134844453508
0.134844453504
0.134844453506
0.13484445351
0.13484445329
0.13484444195
0.13484392575
0.134824607077
0.134259259734
0.122845681847
0.0435657560166
0.00182266418573
0.134844452554
0.13484444251
0.134844442148
0.134844442138
0.134844442138
0.134844442145
0.134844442136
0.134844441926
0.134844430562
0.134843914381
0.134824595789
0.134259250899
0.12284568989
0.0435657564897
0.0018226641936
0.134843936522
0.13484392634
0.134843925973
0.134843925965
0.134843925959
0.134843925962
0.134843925961
0.134843925747
0.134843914379
0.134843398214
0.134824080087
0.134258745495
0.122845341318
0.0435657523921
0.00182266419655
0.134824621899
0.134824607919
0.134824607345
0.1348246073
0.134824607259
0.134824607334
0.134824607337
0.134824607111
0.134824595699
0.134824080085
0.134804779293
0.134239861038
0.122832330215
0.0435655842103
0.00182266417228
0.134259353197
0.134259266503
0.134259261346
0.134259260657
0.134259259685
0.134259262183
0.134259262247
0.134259261228
0.134259248237
0.134258745475
0.134239862683
0.133685226761
0.122430195524
0.0435565781855
0.00182266416109
0.122846502957
0.122845731623
0.122845690316
0.122845685009
0.122845678184
0.122845697466
0.122845697252
0.122845689866
0.122845670901
0.12284534152
0.122832336859
0.122430179274
0.113664721873
0.0431512776807
0.00182266353265
0.0435662575239
0.0435657658454
0.0435657533157
0.0435657505666
0.0435657502931
0.0435657554729
0.0435657537132
0.0435657557293
0.0435657520411
0.0435657523456
0.043565585702
0.0435565760438
0.0431512775796
0.0311735304048
0.00182263416719
0.00182266420835
0.00182266415669
0.00182266415757
0.00182266415856
0.00182266417665
0.00182266417825
0.00182266418385
0.00182266418543
0.00182266419568
0.00182266419427
0.00182266418863
0.0018226641585
0.00182266353261
0.00182263416719
0.00163554670175
0.134844474159
0.134844464136
0.134844463778
0.134844463771
0.134844463771
0.134844463771
0.134844463765
0.134844463553
0.134844452189
0.134843936156
0.134824621543
0.13425935213
0.122846503477
0.0435663086508
0.00182266409285
0.134844464137
0.134844454096
0.134844453737
0.134844453726
0.134844453727
0.13484445373
0.134844453726
0.134844453511
0.134844442143
0.134843925974
0.13482460757
0.13425926525
0.122845732773
0.0435658187809
0.00182266409113
0.134844463779
0.134844453735
0.134844453376
0.134844453368
0.134844453369
0.134844453371
0.134844453362
0.13484445315
0.134844441781
0.134843925605
0.13482460701
0.134259261455
0.122845700898
0.0435658087074
0.00182266409184
0.13484446377
0.134844453672
0.134844453364
0.134844453359
0.134844453355
0.134844453354
0.134844453303
0.134844453137
0.13484444177
0.134843925593
0.134824606983
0.134259261051
0.122845698073
0.0435658068147
0.0018226640928
0.134844463771
0.134844453727
0.134844453375
0.134844453355
0.134844453305
0.134844453352
0.13484445334
0.134844453139
0.13484444177
0.134843925593
0.134824606953
0.134259260084
0.122845691072
0.0435658061743
0.00182266411378
0.134844463765
0.134844453695
0.134844453366
0.134844453357
0.134844453354
0.134844453357
0.134844453355
0.134844453139
0.134844441771
0.134843925595
0.13482460697
0.134259261072
0.122845703497
0.0435658077643
0.00182266409581
0.134844463769
0.134844453723
0.134844453365
0.134844453355
0.134844453359
0.134844453354
0.134844453349
0.134844453137
0.134844441769
0.134843925591
0.134824606965
0.134259261049
0.122845703711
0.0435658073652
0.00182266410124
0.134844463553
0.134844453511
0.134844453149
0.134844453138
0.13484445314
0.134844453139
0.134844453133
0.134844452851
0.134844441564
0.134843925376
0.134824606722
0.134259259933
0.122845691976
0.0435658086529
0.00182266409703
0.13484445219
0.134844442143
0.13484444178
0.13484444177
0.13484444177
0.134844441771
0.134844441696
0.134844441554
0.134844430185
0.134843913938
0.134824595408
0.134259250062
0.122845695688
0.04356580874
0.00182266400631
0.134843936157
0.134843925974
0.134843925606
0.1348439256
0.134843925593
0.134843925595
0.134843925589
0.134843925375
0.134843913936
0.1348433978
0.134824079728
0.134258745816
0.122845352443
0.0435658061388
0.00182266409062
0.134824621554
0.134824607555
0.134824607009
0.134824606967
0.134824606946
0.134824606968
0.134824606964
0.134824606743
0.134824595352
0.134824079727
0.134804778955
0.134239861622
0.122832341443
0.0435656371874
0.00182266403118
0.134259352885
0.134259265448
0.134259261173
0.134259260481
0.134259259961
0.13425926101
0.134259261094
0.134259260981
0.134259248652
0.13425874579
0.134239862617
0.133685227656
0.122430202335
0.0435566316134
0.0018226640239
0.122846510304
0.122845737688
0.122845698598
0.122845692901
0.122845688916
0.122845702736
0.122845702814
0.122845698117
0.122845682301
0.122845352284
0.122832346436
0.122430191136
0.113664739998
0.0431513281339
0.00182266346879
0.0435663098014
0.04356581892
0.043565806467
0.0435658028884
0.0435658049974
0.0435658079637
0.0435658067014
0.0435658083976
0.0435658064967
0.0435658056396
0.0435656369762
0.0435566306337
0.0431513280338
0.031173586124
0.00182263410995
0.00182266408923
0.0018226640748
0.00182266407554
0.00182266407646
0.00182266400101
0.00182266400171
0.00182266399299
0.00182266401189
0.0018226640957
0.00182266408262
0.00182266413797
0.0018226640214
0.0018226634688
0.00182263410995
0.0016363088136
0.134844473387
0.134844463949
0.134844463727
0.134844463743
0.134844463749
0.134844463747
0.134844463741
0.134844463528
0.134844452162
0.13484393613
0.134824621607
0.13425935376
0.122846545036
0.043566493777
0.00182266405108
0.134844463975
0.134844454039
0.13484445371
0.134844453707
0.134844453704
0.134844453709
0.134844453703
0.134844453488
0.134844442119
0.13484392595
0.134824607636
0.134259267194
0.122845778136
0.0435660058684
0.00182266409175
0.134844463729
0.134844453707
0.134844453356
0.134844453346
0.134844453349
0.134844453358
0.134844453342
0.134844453125
0.134844441758
0.134843925582
0.13482460707
0.134259263154
0.122845745775
0.0435659977283
0.00182266409245
0.134844463741
0.134844453663
0.134844453341
0.134844453338
0.134844453338
0.134844453333
0.13484445329
0.134844453113
0.13484444175
0.134843925571
0.134824607051
0.134259263073
0.122845746291
0.0435659951668
0.00182266409341
0.134844463748
0.134844453712
0.134844453358
0.134844453333
0.134844453291
0.13484445333
0.134844453327
0.134844453115
0.134844441748
0.134843925571
0.134824607136
0.134259265193
0.1228457576
0.0435659976968
0.00182266413863
0.134844463741
0.134844453662
0.134844453344
0.134844453334
0.134844453332
0.134844453336
0.134844453349
0.134844453117
0.134844441752
0.134843925573
0.134824607016
0.134259261779
0.122845735194
0.0435659907072
0.0018226640964
0.134844463745
0.1348444537
0.134844453342
0.134844453334
0.134844453342
0.134844453338
0.134844453328
0.13484445312
0.134844441745
0.134843925567
0.134824607013
0.134259261748
0.122845736849
0.0435659945371
0.00182266410171
0.134844463528
0.134844453488
0.134844453127
0.134844453116
0.134844453117
0.134844453117
0.13484445312
0.134844452868
0.134844441552
0.134843925357
0.134824606911
0.134259264878
0.122845755174
0.0435659961218
0.00182266409751
0.134844452162
0.134844442119
0.134844441758
0.134844441747
0.134844441748
0.134844441759
0.134844441704
0.134844441527
0.134844430163
0.134843913998
0.134824595449
0.134259250832
0.122845731903
0.0435659964377
0.00182266399787
0.13484393613
0.134843925949
0.134843925583
0.134843925581
0.134843925573
0.134843925572
0.134843925566
0.134843925354
0.134843914
0.134843397811
0.134824079937
0.134258751046
0.122845417393
0.0435659960065
0.00182266408748
0.13482462161
0.134824607603
0.134824607075
0.134824607033
0.134824607129
0.134824607019
0.134824607003
0.134824606801
0.134824595554
0.13482407993
0.134804779247
0.134239866888
0.122832408804
0.04356583113
0.00182266398565
0.134259354569
0.134259266153
0.13425926309
0.134259262117
0.134259264605
0.134259261714
0.134259261747
0.134259262971
0.134259254138
0.134258750543
0.13423986482
0.133685235853
0.122430240389
0.0435568172598
0.00182266397574
0.122846554168
0.122845772489
0.122845744135
0.122845732188
0.122845753507
0.122845735884
0.122845736423
0.122845745717
0.122845753688
0.122845411459
0.12283240101
0.122430259577
0.113664849586
0.0431515140947
0.00182266347365
0.0435664964632
0.0435660078526
0.0435659960017
0.043565987663
0.0435660003135
0.0435659945717
0.0435659955824
0.0435659954602
0.0435660035719
0.0435659938586
0.0435658249389
0.0435568204252
0.0431515130441
0.0311737682268
0.00182263412213
0.00182266404877
0.00182266407568
0.00182266407643
0.00182266407734
0.00182266398685
0.00182266398899
0.00182266399182
0.00182266401218
0.00182266409631
0.0018226640835
0.00182266416125
0.0018226639758
0.00182266347369
0.00182263412213
0.00163627200716
0.134844353883
0.134844440075
0.134844462447
0.134844464002
0.134844464055
0.134844464045
0.134844464055
0.134844463844
0.134844452477
0.134843936449
0.134824621979
0.134259354328
0.122846552049
0.0435665096417
0.00182266408877
0.134844444403
0.134844451647
0.134844453882
0.134844454041
0.134844454034
0.134844454044
0.134844454026
0.134844453803
0.134844442435
0.13484392627
0.134824608046
0.134259267861
0.122845780309
0.0435660195726
0.00182266413278
0.134844462715
0.134844453892
0.134844453679
0.134844453684
0.134844453695
0.134844453732
0.134844453693
0.134844453438
0.134844442076
0.134843925903
0.1348246075
0.134259264692
0.122845752615
0.043566012464
0.00182266413354
0.134844464015
0.134844454043
0.134844453679
0.134844453679
0.134844453701
0.134844453665
0.134844453712
0.134844453432
0.134844442088
0.134843925897
0.134824607438
0.134259263678
0.122845748717
0.0435660096931
0.00182266413405
0.134844464084
0.134844454071
0.134844453674
0.134844453657
0.134844453716
0.134844453656
0.134844453678
0.134844453433
0.134844442069
0.134843925891
0.134824607459
0.134259264999
0.12284575864
0.0435660119444
0.00182266405148
0.134844464075
0.134844454089
0.134844453668
0.134844453654
0.134844453657
0.134844453662
0.134844453721
0.13484445344
0.134844442091
0.134843925912
0.134824607397
0.134259262329
0.122845738467
0.0435660060279
0.00182266413638
0.134844464058
0.134844454026
0.134844453661
0.134844453671
0.134844453688
0.134844453671
0.134844453653
0.134844453468
0.134844442063
0.13484392589
0.134824607384
0.134259262299
0.122845739825
0.0435660090979
0.00182266413727
0.134844463843
0.134844453804
0.134844453443
0.134844453435
0.134844453433
0.13484445344
0.134844453503
0.134844453237
0.134844441849
0.134843925685
0.134824607198
0.134259264709
0.122845757361
0.0435660100259
0.0018226641325
0.134844452477
0.134844442435
0.134844442075
0.134844442067
0.134844442069
0.134844442135
0.13484444208
0.134844441777
0.134844430485
0.134843914345
0.134824595816
0.13425925124
0.122845734333
0.0435660096915
0.0018226641146
0.134843936449
0.134843926265
0.134843925908
0.134843925932
0.134843925899
0.134843925886
0.134843925889
0.134843925683
0.134843914347
0.134843398171
0.134824080232
0.1342587509
0.122845419334
0.0435660107703
0.00182266408722
0.134824621988
0.134824607967
0.134824607492
0.13482460741
0.134824607467
0.13482460739
0.134824607382
0.134824607156
0.134824595906
0.134824080235
0.134804779484
0.134239866517
0.122832410799
0.0435658451421
0.00182266401932
0.134259354961
0.134259266767
0.134259264082
0.134259262665
0.134259264868
0.134259262274
0.134259262343
0.134259263251
0.134259253918
0.134258750686
0.134239864802
0.13368523557
0.122430243429
0.0435568311936
0.00182266401148
0.122846555288
0.12284577584
0.122845747657
0.122845737697
0.122845756284
0.122845739042
0.122845739735
0.12284574723
0.122845755775
0.122845414004
0.122832401676
0.122430261474
0.11366485247
0.0431515283121
0.0018226632896
0.0435665096187
0.043566022435
0.043566010565
0.0435660059586
0.0435660139539
0.0435660090254
0.0435660095469
0.0435660104664
0.0435660176064
0.0435660080104
0.0435658388068
0.0435568340879
0.0431515270351
0.0311737843619
0.00182263393729
0.00182266408622
0.00182266411696
0.00182266411752
0.0018226641182
0.00182266409509
0.00182266409673
0.00182266412362
0.00182266412865
0.00182266414131
0.001822664144
0.00182266399056
0.001822664011
0.00182266328956
0.00182263393728
0.00163658889856
0.134828838154
0.134840999704
0.134844227472
0.134844453933
0.13484446344
0.134844463756
0.13484446374
0.134844463554
0.134844452189
0.134843936161
0.13482462175
0.134259357833
0.122846590653
0.0435665573632
0.00182266417823
0.134841573269
0.134844056313
0.134844429128
0.134844452684
0.134844453654
0.13484445373
0.13484445372
0.134844453517
0.134844442152
0.134843925981
0.134824607685
0.134259267906
0.122845788483
0.0435660614729
0.00182266398604
0.134844265229
0.13484443055
0.134844452003
0.134844453362
0.134844453352
0.134844453359
0.134844453316
0.134844453172
0.134844441786
0.134843925615
0.134824607112
0.134259264108
0.122845757535
0.0435660526903
0.00182266398638
0.134844455821
0.134844452822
0.134844453389
0.134844453349
0.13484445334
0.134844453338
0.134844453353
0.134844453172
0.134844441778
0.134843925715
0.134824607102
0.134259263543
0.122845756861
0.0435660554317
0.00182266398693
0.134844463501
0.134844453654
0.134844453394
0.134844453338
0.134844453359
0.134844453327
0.134844453329
0.134844453466
0.134844441752
0.134843925687
0.134824607144
0.134259265036
0.122845765722
0.0435660562241
0.0018226640523
0.134844463713
0.134844453724
0.134844453343
0.134844453353
0.134844453343
0.134844453354
0.134844453347
0.134844453153
0.134844441763
0.134843925549
0.134824607074
0.134259262964
0.12284575635
0.0435660530805
0.00182266398884
0.134844463745
0.134844453694
0.13484445336
0.134844453296
0.134844453351
0.134844453353
0.13484445335
0.134844453135
0.134844441765
0.13484392559
0.134824607069
0.134259262612
0.122845753578
0.043566054913
0.00182266398984
0.134844463554
0.134844453529
0.134844453153
0.134844453139
0.134844453144
0.134844453138
0.134844453131
0.134844452939
0.134844441555
0.134843925377
0.134824606874
0.134259264663
0.122845766067
0.0435660516392
0.00182266398724
0.134844452189
0.134844442146
0.134844441783
0.13484444178
0.134844441772
0.13484444173
0.134844441676
0.134844441558
0.134844430179
0.134843913919
0.134824595486
0.134259251811
0.122845744
0.0435660504714
0.00182266399838
0.134843936161
0.134843925987
0.134843925619
0.134843925712
0.134843925602
0.134843925541
0.134843925586
0.13484392538
0.134843913921
0.134843397804
0.134824079927
0.134258751223
0.122845429932
0.0435660581904
0.00182266408762
0.134824621668
0.134824607675
0.134824607139
0.134824607132
0.134824607148
0.134824607099
0.134824607089
0.134824606863
0.134824595576
0.134824079976
0.134804779519
0.134239867142
0.12283242202
0.0435658884841
0.00182266409973
0.134259354961
0.134259267278
0.134259264043
0.134259263578
0.134259265057
0.134259263154
0.134259262843
0.134259263217
0.13425925398
0.134258751113
0.134239865354
0.133685236265
0.122430259874
0.0435568707529
0.00182266409892
0.122846561901
0.122845788636
0.122845753918
0.122845758505
0.122845766279
0.122845757876
0.122845754041
0.122845754342
0.122845765152
0.122845426414
0.122832408552
0.122430272012
0.113664870062
0.0431515724114
0.00182266328809
0.0435665478953
0.0435660669834
0.0435660503441
0.0435660597723
0.0435660534096
0.0435660545842
0.0435660543456
0.0435660575883
0.0435660640048
0.0435660523577
0.0435658794137
0.0435568750387
0.0431515708609
0.0311738280206
0.00182263393481
0.00182266417405
0.00182266397868
0.00182266397901
0.00182266397968
0.00182266398887
0.00182266398897
0.00182266399901
0.00182266400282
0.00182266399229
0.00182266398882
0.00182266398969
0.00182266409669
0.00182266328805
0.00182263393481
0.00163654262644
0.133431147344
0.134475883871
0.134818082784
0.134843307189
0.134844427091
0.134844462847
0.134844463718
0.134844463551
0.134844452185
0.134843936155
0.134824621685
0.13425935672
0.122846590009
0.0435665641467
0.00182266405286
0.134529281969
0.134800720734
0.134841637849
0.134844335875
0.13484445005
0.134844453618
0.134844453712
0.134844453514
0.134844442141
0.134843925976
0.1348246077
0.134259268437
0.122845797546
0.0435660767092
0.00182266398116
0.134822028404
0.134841813203
0.134844296068
0.134844447
0.134844453101
0.134844453335
0.134844453289
0.134844453164
0.134844441782
0.134843925613
0.134824607103
0.134259264258
0.122845764393
0.0435660596479
0.00182266398146
0.134843544044
0.134844352124
0.13484444758
0.13484445306
0.134844453251
0.134844453326
0.134844453289
0.134844453162
0.134844441773
0.134843925661
0.1348246071
0.134259263575
0.12284575703
0.0435660604869
0.00182266398188
0.134844437658
0.134844450831
0.134844453213
0.134844453293
0.134844453253
0.13484445332
0.134844453328
0.134844453469
0.134844441748
0.134843925688
0.134824607222
0.134259266847
0.122845775039
0.0435660616603
0.00182266404702
0.134844463136
0.134844453582
0.134844453333
0.134844453346
0.134844453338
0.134844453352
0.134844453337
0.134844453148
0.134844441762
0.134843925522
0.134824607085
0.134259263386
0.122845756207
0.0435660603551
0.0018226639831
0.134844463732
0.134844453685
0.134844453355
0.13484445327
0.134844453348
0.13484445334
0.134844453346
0.134844453134
0.134844441763
0.134843925584
0.134824607069
0.134259262907
0.122845753901
0.0435660599505
0.00182266398339
0.134844463552
0.134844453529