/*--------------------------------*- C++ -*----------------------------------*\
| =========                 |                                                 |
| \\      /  F ield         | OpenFOAM: The Open Source CFD Toolbox           |
|  \\    /   O peration     | Version:  2406                                  |
|   \\  /    A nd           | Website:  www.openfoam.com                      |
|    \\/     M anipulation  |                                                 |
\*---------------------------------------------------------------------------*/
FoamFile
{
    version     2.0;
    format      ascii;
    arch        "LSB;label=32;scalar=64";
    class       volScalarField;
    location    "0.01";
    object      omega_0;
}
// * * * * * * * * * * * * * * * * * * * * * * * * * * * * * * * * * * * * * //

dimensions      [0 0 -1 0 0 0 0];

internalField   nonuniform List<scalar> 
29768
(
1.7795431092
1.77954308248
1.77954308101
1.77954308099
1.77954308104
1.77954308112
1.77954308126
1.77954308398
1.77954321975
1.77954939839
1.77978197902
1.78667598832
1.94128880408
5.30636505982
130.265081215
1.77954308248
1.77954305597
1.77954305452
1.7795430545
1.77954305455
1.77954305463
1.77954305477
1.77954305749
1.77954319331
1.77954937354
1.77978199875
1.78667687471
1.94129958351
5.30641863461
130.265075819
1.77954308101
1.77954305452
1.77954305307
1.77954305305
1.7795430531
1.77954305318
1.77954305333
1.77954305604
1.77954319187
1.77954937219
1.7797819997
1.78667691854
1.94130007273
5.30642015738
130.265075844
1.77954308099
1.7795430545
1.77954305305
1.77954305303
1.77954305307
1.77954305316
1.7795430533
1.77954305602
1.77954319185
1.77954937217
1.77978199977
1.78667692008
1.94130008592
5.30642002961
130.265075868
1.77954308104
1.77954305455
1.7795430531
1.77954305308
1.77954305313
1.77954305321
1.77954305336
1.77954305607
1.77954319191
1.77954937223
1.77978199986
1.78667692035
1.94130009269
5.30642026186
130.265075958
1.77954308112
1.77954305463
1.77954305318
1.77954305316
1.77954305321
1.77954305329
1.77954305344
1.77954305616
1.779543192
1.77954937231
1.77978199996
1.78667692027
1.94130008593
5.30641994408
130.265075988
1.77954308126
1.77954305477
1.77954305333
1.7795430533
1.77954305336
1.77954305344
1.7795430536
1.77954305632
1.77954319218
1.77954937249
1.77978200017
1.78667692028
1.94130008981
5.30642008517
130.26507622
1.77954308398
1.77954305749
1.77954305604
1.77954305602
1.77954305607
1.77954305616
1.77954305632
1.77954305903
1.7795431949
1.77954937521
1.77978200292
1.78667692336
1.94130009529
5.30642003726
130.265076218
1.77954321975
1.77954319331
1.77954319187
1.77954319185
1.77954319191
1.779543192
1.77954319218
1.7795431949
1.77954333081
1.77954951111
1.77978213877
1.78667705488
1.94130015489
5.30641789204
130.265076853
1.77954939839
1.77954937355
1.77954937219
1.77954937217
1.77954937223
1.77954937232
1.77954937249
1.77954937521
1.77954951111
1.77955569127
1.77978831484
1.78668313895
1.94130509936
5.30642266082
130.265076653
1.77978197903
1.77978199876
1.77978199969
1.77978199978
1.77978199986
1.77978199996
1.77978200018
1.77978200293
1.77978213878
1.77978831486
1.7800208185
1.78691262812
1.94149457972
5.3064223143
130.265078402
1.78667598847
1.78667687485
1.78667691852
1.7866769202
1.78667692035
1.78667692044
1.78667692063
1.78667692356
1.78667705508
1.7866831393
1.7869126283
1.79373821847
1.94742347264
5.30750829096
130.265076708
1.94128880655
1.9412995858
1.94130007307
1.94130008803
1.94130009327
1.94130008867
1.94130009482
1.94130009844
1.94130015802
1.94130510447
1.94149458274
1.94742347526
2.08846034994
5.35533878139
130.265032615
5.30636509918
5.30641867386
5.30642018087
5.30642006971
5.30642028764
5.30641998859
5.30642014885
5.30642008472
5.30641793984
5.30642272618
5.30642236275
5.30750833881
5.35533882828
7.37134286964
130.262939042
130.265081215
130.265075821
130.265075846
130.265075869
130.265075955
130.265075987
130.26507622
130.265076218
130.265076852
130.265076652
130.265078399
130.265076709
130.265032615
130.262939042
130.256418579
1.77951582209
1.77951579206
1.77951579039
1.77951579032
1.77951579033
1.77951579033
1.7795157904
1.77951579323
1.77951594285
1.77952273653
1.77977710736
1.78725651553
1.95306884173
5.50422496142
130.258749615
1.77951579206
1.77951576228
1.77951576062
1.77951576056
1.77951576057
1.77951576057
1.77951576064
1.77951576347
1.77951591314
1.77952270861
1.77977712943
1.78725750787
1.95308091698
5.50428600419
130.258744821
1.77951579039
1.77951576062
1.77951575897
1.77951575891
1.77951575892
1.77951575892
1.77951575899
1.77951576182
1.77951591149
1.77952270706
1.77977713044
1.78725755657
1.95308145933
5.50428766125
130.258744863
1.77951579032
1.77951576056
1.77951575891
1.77951575884
1.77951575885
1.77951575886
1.77951575892
1.77951576175
1.77951591143
1.779522707
1.77977713047
1.78725755826
1.95308147468
5.50428757661
130.2587449
1.77951579033
1.77951576057
1.77951575892
1.77951575885
1.77951575886
1.77951575887
1.77951575893
1.77951576176
1.77951591143
1.77952270701
1.77977713047
1.78725755807
1.95308147526
5.50428772237
130.258744553
1.77951579033
1.77951576057
1.77951575892
1.77951575886
1.77951575887
1.77951575887
1.77951575894
1.77951576177
1.77951591144
1.77952270701
1.77977713048
1.78725755807
1.95308147133
5.50428750249
130.258745075
1.7795157904
1.77951576064
1.77951575899
1.77951575892
1.77951575893
1.77951575894
1.77951575901
1.77951576184
1.77951591151
1.77952270709
1.77977713054
1.78725755819
1.95308147815
5.50428778634
130.258745399
1.77951579323
1.77951576347
1.77951576182
1.77951576175
1.77951576176
1.77951576177
1.77951576184
1.77951576467
1.77951591434
1.77952270992
1.77977713338
1.78725756092
1.95308147411
5.50428747202
130.258745391
1.77951594285
1.77951591314
1.77951591149
1.77951591143
1.77951591143
1.77951591144
1.77951591151
1.77951591435
1.77951606402
1.77952285958
1.77977728286
1.78725770668
1.95308157517
5.50428725463
130.258746176
1.77952273653
1.77952270861
1.77952270706
1.779522707
1.77952270701
1.77952270701
1.77952270709
1.77952270992
1.77952285958
1.77952965498
1.77978407311
1.78726438836
1.95308685727
5.50428810394
130.258745944
1.77977710738
1.77977712944
1.77977713044
1.77977713047
1.7797771305
1.77977713049
1.77977713055
1.7797771334
1.77977728288
1.77978407312
1.78003832008
1.78751526304
1.95329324051
5.50430550712
130.258747055
1.78725651576
1.78725750804
1.78725755667
1.78725755828
1.78725755864
1.78725755823
1.78725755837
1.78725756132
1.78725770699
1.78726438865
1.78751526284
1.79491770467
1.95969956273
5.50544805688
130.258745415
1.95306884531
1.95308091984
1.95308146144
1.95308147565
1.95308148329
1.95308147453
1.95308148143
1.95308147996
1.95308157962
1.95308686209
1.95329323898
1.95969956024
2.11065059382
5.55709880326
130.258701717
5.5042250117
5.50428604766
5.50428770345
5.50428760379
5.50428782013
5.50428755814
5.50428784305
5.50428754753
5.5042873129
5.5042881799
5.50430552919
5.50544806758
5.55709881715
7.6909804325
130.25660583
130.258749567
130.258744384
130.258744426
130.258744464
130.258745003
130.258745054
130.258745378
130.258745426
130.258746175
130.258745963
130.258747526
130.258745292
130.258701717
130.25660583
130.250300348
1.77951527595
1.77951524578
1.77951524409
1.77951524402
1.77951524403
1.77951524404
1.77951524411
1.77951524696
1.77951539696
1.77952220605
1.77977709791
1.78726934477
1.953286502
5.50621808813
130.258724128
1.77951524578
1.77951521589
1.77951521423
1.77951521416
1.77951521416
1.77951521415
1.77951521422
1.77951521708
1.77951536711
1.77952217802
1.77977712005
1.78727034068
1.95329861811
5.50627930747
130.258719621
1.77951524409
1.77951521423
1.77951521256
1.77951521249
1.77951521249
1.77951521248
1.77951521256
1.77951521541
1.77951536545
1.77952217646
1.77977712104
1.78727038907
1.95329915589
5.50628089545
130.25871968
1.77951524402
1.77951521415
1.7795152125
1.77951521242
1.77951521242
1.77951521242
1.77951521247
1.77951521534
1.77951536537
1.77952217639
1.77977712109
1.7872703911
1.95329917502
5.50628083936
130.258719741
1.77951524403
1.77951521416
1.77951521249
1.77951521242
1.77951521243
1.77951521244
1.77951521248
1.77951521536
1.77951536539
1.7795221764
1.77977712108
1.78727039263
1.95329916923
5.50628085674
130.258718988
1.77951524404
1.77951521417
1.7795152125
1.77951521244
1.77951521245
1.77951521243
1.77951521239
1.77951521536
1.77951536539
1.77952217641
1.77977712108
1.78727039063
1.95329916766
5.5062807143
130.258719993
1.77951524411
1.77951521423
1.77951521256
1.7795152125
1.77951521249
1.77951521244
1.77951521257
1.7795152154
1.77951536546
1.77952217647
1.7797771211
1.78727039035
1.95329916829
5.50628086288
130.25872032
1.77951524696
1.77951521708
1.77951521541
1.77951521533
1.77951521535
1.77951521536
1.77951521538
1.77951521801
1.77951536811
1.77952217926
1.77977712383
1.78727039542
1.95329916656
5.50628050775
130.258720399
1.77951539696
1.77951536711
1.77951536545
1.77951536538
1.77951536539
1.77951536536
1.77951536521
1.77951536828
1.77951551829
1.77952232905
1.77977727364
1.78727053933
1.95329926726
5.50628026734
130.258721038
1.77952220605
1.77952217802
1.77952217645
1.77952217637
1.7795221764
1.77952217641
1.77952217646
1.77952217929
1.77952232905
1.7795291399
1.77978407936
1.78727723804
1.95330455254
5.50628081796
130.258721076
1.77977709792
1.77977712006
1.77977712104
1.77977712109
1.77977712114
1.77977712108
1.77977712113
1.77977712395
1.77977727374
1.77978407939
1.78003886303
1.78752862499
1.95351133575
5.50629893088
130.258721126
1.78726934501
1.7872703407
1.78727038918
1.78727039111
1.78727039387
1.78727039062
1.78727039093
1.78727039395
1.78727054463
1.78727723862
1.78752861922
1.7949436335
1.95992714841
5.50744083353
130.258720274
1.95328650556
1.95329861853
1.9532991582
1.95329917631
1.95329918555
1.9532991685
1.95329917743
1.95329917577
1.95329927635
1.95330456189
1.95351132962
1.95992714482
2.11104382258
5.55912916604
130.25867398
5.50621815979
5.50627933068
5.50628093871
5.50628086084
5.50628102305
5.50628073821
5.50628098252
5.5062806411
5.50628032115
5.50628095358
5.50629895308
5.50744080347
5.55912915927
7.69374650683
130.256580272
130.258724098
130.258719063
130.258719121
130.258719184
130.258719846
130.258719946
130.258720288
130.258720428
130.258721056
130.258721073
130.258721468
130.258720115
130.25867398
130.256580272
130.250268347
1.77951526874
1.7795152385
1.77951523679
1.77951523672
1.77951523672
1.77951523672
1.7795152368
1.77951523965
1.77951538965
1.77952219877
1.77977709202
1.78726933593
1.95328478879
5.50607987891
130.25873231
1.7795152385
1.77951520859
1.77951520692
1.77951520685
1.77951520684
1.7795152068
1.77951520686
1.77951520976
1.77951535978
1.77952217074
1.77977711401
1.78727032877
1.95329685673
5.50614117776
130.258729949
1.77951523679
1.77951520693
1.77951520526
1.77951520514
1.77951520512
1.77951520509
1.77951520523
1.77951520809
1.77951535811
1.77952216916
1.7797771148
1.78727037195
1.95329735312
5.50614250475
130.258730015
1.77951523673
1.77951520727
1.77951520518
1.77951520506
1.77951520507
1.77951520507
1.77951520557
1.77951520802
1.779515358
1.77952216909
1.77977711501
1.78727037763
1.95329740186
5.50614269956
130.25873008
1.77951523672
1.77951520686
1.77951520513
1.77951520507
1.77951520553
1.77951520512
1.77951520519
1.77951520802
1.77951535803
1.77952216912
1.77977711576
1.78727039638
1.95329755001
5.50614283194
130.258728286
1.77951523674
1.77951520702
1.77951520516
1.7795152051
1.77951520512
1.77951520504
1.77951520493
1.779515208
1.77951535804
1.77952216912
1.77977711486
1.7872703641
1.95329725362
5.50614243945
130.258730351
1.77951523679
1.77951520688
1.77951520518
1.77951520515
1.7795152051
1.77951520503
1.77951520518
1.77951520801
1.77951535808
1.77952216915
1.77977711482
1.78727036363
1.95329725717
5.50614258089
130.258730629
1.77951523965
1.77951520976
1.77951520808
1.77951520797
1.77951520801
1.779515208
1.77951520799
1.7795152109
1.77951536058
1.77952217192
1.77977711828
1.78727039743
1.95329752691
5.5061424515
130.25873066
1.77951538965
1.77951535978
1.77951535812
1.77951535804
1.77951535803
1.77951535796
1.7795153581
1.7795153609
1.77951551088
1.77952232194
1.77977726725
1.78727051505
1.95329739902
5.50614239091
130.258731222
1.77952219877
1.77952217074
1.77952216916
1.77952216904
1.77952216912
1.77952216911
1.77952216913
1.77952217196
1.77952232197
1.77952913284
1.77978407401
1.78727724215
1.95330294068
5.50614289573
130.258731433
1.77977709169
1.7797771138
1.77977711494
1.77977711533
1.77977711586
1.77977711488
1.77977711484
1.77977711784
1.77977726844
1.77978407404
1.78003885937
1.78752863442
1.95350981235
5.50616412068
130.258729701
1.78726932397
1.787270314
1.7872703762
1.78727038516
1.78727039808
1.78727036484
1.78727036398
1.78727037755
1.78727055048
1.78727724242
1.78752861252
1.79494363452
1.9599252613
5.50730209164
130.258728904
1.95328467017
1.9532967426
1.95329739243
1.95329747654
1.95329758509
1.95329727853
1.95329728198
1.95329739943
1.95329770096
1.95330293742
1.95350970668
1.95992552124
2.11104104627
5.55900394926
130.258684091
5.5060797454
5.5061412183
5.50614279097
5.5061431365
5.50614317427
5.50614251856
5.50614274257
5.50614248814
5.50614295127
5.50614288861
5.50616393531
5.50730232988
5.55900391916
7.69346174396
130.256590066
130.258732274
130.25872859
130.258728652
130.258728723
130.258730013
130.258730127
130.258730527
130.25873064
130.258731371
130.25873127
130.258730868
130.258728719
130.258684087
130.256590066
130.25027967
1.77951526861
1.77951523832
1.77951523658
1.77951523649
1.77951523647
1.77951523648
1.77951523655
1.77951523938
1.77951538935
1.77952219843
1.77977709126
1.787269333
1.95328465603
5.50607328394
130.258724038
1.77951523831
1.7795152084
1.77951520671
1.77951520665
1.77951520666
1.77951520663
1.77951520667
1.7795152095
1.77951535951
1.77952217041
1.77977711324
1.78727032539
1.95329671821
5.50613451217
130.258723915
1.77951523658
1.77951520675
1.77951520508
1.77951520498
1.77951520497
1.77951520494
1.77951520504
1.77951520784
1.77951535785
1.77952216884
1.77977711419
1.78727036943
1.95329721787
5.5061357813
130.258723965
1.77951523652
1.77951520737
1.77951520503
1.77951520491
1.77951520494
1.77951520495
1.77951520561
1.77951520782
1.77951535779
1.77952216879
1.77977711434
1.7872703746
1.9532972628
5.50613601322
130.258724034
1.77951523648
1.77951520669
1.77951520488
1.77951520494
1.77951520558
1.77951520496
1.77951520511
1.77951520778
1.77951535778
1.77952216878
1.77977711474
1.78727038748
1.95329737571
5.50613607042
130.25872553
1.77951523656
1.77951520708
1.779515205
1.77951520491
1.77951520493
1.7795152049
1.77951520493
1.77951520776
1.77951535779
1.77952216878
1.77977711453
1.78727037433
1.95329717657
5.50613589769
130.258724249
1.77951523655
1.77951520671
1.77951520501
1.77951520493
1.77951520486
1.77951520494
1.77951520499
1.7795152078
1.77951535783
1.77952216883
1.7797771146
1.78727037465
1.95329717308
5.50613594949
130.258724636
1.77951523938
1.7795152095
1.77951520784
1.77951520779
1.77951520776
1.77951520777
1.77951520785
1.77951521161
1.77951536057
1.77952217167
1.77977711783
1.78727038949
1.95329735952
5.50613578899
130.258724336
1.77951538935
1.77951535951
1.77951535786
1.77951535779
1.77951535778
1.77951535779
1.77951535879
1.77951536071
1.77951551071
1.77952232262
1.77977726716
1.7872705209
1.95329730089
5.50613578666
130.258717867
1.77952219843
1.77952217042
1.77952216883
1.77952216872
1.77952216878
1.77952216878
1.77952216886
1.77952217169
1.77952232264
1.77952913312
1.77978407358
1.78727723285
1.95330276335
5.50613610267
130.258723878
1.77977709111
1.77977711344
1.77977711421
1.77977711456
1.77977711484
1.77977711456
1.77977711462
1.77977711754
1.77977726791
1.7797840736
1.78003885895
1.78752862319
1.95350963363
5.50615742522
130.25871964
1.78726932291
1.78727032275
1.78727037319
1.78727038219
1.78727038911
1.78727037525
1.78727037407
1.78727037554
1.78727053967
1.78727723323
1.78752860992
1.79494361913
1.95992514816
5.5072953252
130.258719121
1.95328454748
1.95329663991
1.95329725446
1.95329734487
1.95329740824
1.95329718984
1.95329718746
1.95329726188
1.95329751373
1.95330276584
1.95350955429
1.95992533121
2.11104070932
5.558997413
130.258679537
5.50607313863
5.5061345017
5.50613606447
5.50613650211
5.50613624745
5.50613587195
5.50613604427
5.50613581976
5.50613606914
5.50613615323
5.5061574558
5.50729542778
5.55899742047
7.69344799578
130.256585985
130.258723779
130.25872275
130.258722803
130.258722869
130.258717488
130.258717538
130.258716916
130.258718265
130.258724241
130.258723308
130.258727255
130.258718942
130.258679537
130.256585985
130.250262867
1.77951527861
1.77951524067
1.77951523716
1.77951523675
1.77951523666
1.77951523668
1.77951523677
1.7795152396
1.77951538957
1.77952219862
1.77977709023
1.78726931089
1.95328399517
5.50604992472
130.258721059
1.77951524033
1.77951520908
1.77951520701
1.77951520684
1.77951520686
1.77951520681
1.77951520688
1.77951520973
1.77951535974
1.77952217059
1.77977711223
1.78727029927
1.9532959967
5.50611089236
130.258723959
1.77951523713
1.77951520704
1.77951520528
1.77951520518
1.77951520513
1.77951520501
1.77951520521
1.77951520807
1.77951535808
1.77952216903
1.77977711328
1.78727034661
1.95329650407
5.50611189296
130.258724009
1.77951523676
1.77951520742
1.77951520524
1.77951520508
1.77951520507
1.77951520514
1.7795152057
1.77951520803
1.77951535798
1.77952216896
1.77977711332
1.78727034749
1.95329649592
5.5061122338
130.258724077
1.77951523667
1.77951520682
1.779515205
1.77951520514
1.77951520567
1.77951520516
1.7795152052
1.779515208
1.779515358
1.77952216895
1.77977711217
1.78727031926
1.95329631799
5.50611191516
130.258727302
1.77951523677
1.77951520743
1.7795152052
1.77951520512
1.77951520513
1.7795152051
1.77951520492
1.77951520797
1.77951535796
1.77952216893
1.77977711377
1.78727036472
1.95329667239
5.50611279659
130.258724291
1.77951523677
1.77951520692
1.77951520523
1.77951520513
1.77951520501
1.77951520506
1.77951520519
1.77951520795
1.77951535804
1.779522169
1.77977711381
1.78727036514
1.95329664605
5.50611231316
130.258724669
1.7795152396
1.77951520973
1.77951520807
1.77951520801
1.77951520798
1.77951520797
1.77951520794
1.77951521127
1.77951536056
1.77952217177
1.77977711514
1.78727032347
1.95329635451
5.50611209637
130.25872437
1.77951538958
1.77951535974
1.77951535809
1.77951535802
1.779515358
1.77951535787
1.77951535857
1.77951536089
1.77951551085
1.77952232165
1.77977726645
1.78727051046
1.9532967249
5.50611207173
130.258717265
1.77952219862
1.7795221706
1.77952216901
1.77952216884
1.77952216893
1.77952216893
1.77952216902
1.77952217181
1.77952232162
1.77952913279
1.77978407064
1.78727716303
1.95330173072
5.5061121279
130.258723654
1.77977709018
1.77977711266
1.77977711321
1.77977711356
1.77977711227
1.77977711373
1.77977711395
1.7797771166
1.77977726506
1.77978407074
1.78003885488
1.78752855265
1.95350856269
5.5061329509
130.258716393
1.78726930021
1.78727031315
1.78727034745
1.78727036021
1.7872703271
1.78727036564
1.78727036516
1.78727034887
1.78727046645
1.78727716974
1.78752858007
1.79494350875
1.95992453832
5.5072718531
130.258715686
1.95328384991
1.95329608625
1.95329653016
1.95329671987
1.95329638102
1.95329666052
1.95329665287
1.95329650484
1.95329637855
1.95330182509
1.95350868674
1.95992423583
2.11103867432
5.55897345132
130.258679883
5.5060495855
5.50611062437
5.50611211105
5.5061131501
5.50611156338
5.50611228778
5.50611217911
5.5061121788
5.5061111725
5.50611239996
5.50613373929
5.50727146864
5.5589736388
7.693403162
130.256586853
130.258720895
130.258722813
130.258722866
130.258722932
130.258716479
130.258716631
130.258716833
130.258718285
130.258724284
130.258723371
130.258728915
130.258715691
130.258679886
130.256586853
130.250262874
1.77951686057
1.77951556074
1.77951525907
1.7795152383
1.77951523718
1.77951523733
1.77951523765
1.77951524049
1.77951539048
1.77952219945
1.7797770902
1.78726930539
1.95328388811
5.5060478912
130.258723747
1.77951550363
1.77951524571
1.77951520978
1.77951520747
1.77951520749
1.77951520733
1.77951520763
1.77951521061
1.77951536063
1.77952217137
1.77977711171
1.78727029411
1.95329596749
5.50610911696
130.258726885
1.77951525551
1.77951520964
1.779515206
1.77951520572
1.77951520552
1.77951520506
1.7795152056
1.77951520894
1.77951535896
1.77952216983
1.77977711258
1.7872703303
1.95329640019
5.50611004785
130.258726939
1.7795152381
1.77951520743
1.77951520574
1.77951520553
1.77951520524
1.77951520577
1.77951520516
1.7795152088
1.77951535859
1.77952216973
1.7797771132
1.78727034359
1.95329646132
5.50611035365
130.258726975
1.77951523726
1.77951520701
1.77951520519
1.77951520576
1.77951520507
1.77951520589
1.7795152056
1.77951520883
1.77951535883
1.77952216974
1.77977711284
1.78727032574
1.95329630348
5.50611006309
130.258721088
1.77951523742
1.7795152068
1.77951520587
1.7795152059
1.77951520587
1.77951520581
1.779515205
1.77951520873
1.77951535853
1.77952216942
1.77977711365
1.78727036118
1.95329662565
5.50611081647
130.258727142
1.77951523766
1.77951520765
1.77951520603
1.77951520569
1.77951520546
1.77951520567
1.77951520592
1.77951520839
1.77951535882
1.77952216976
1.77977711374
1.78727036183
1.95329660445
5.50611042914
130.258727205
1.77951524049
1.77951521061
1.77951520894
1.77951520883
1.7795152088
1.77951520872
1.77951520793
1.77951521129
1.7795153607
1.77952217227
1.77977711565
1.78727033052
1.95329632602
5.5061103519
130.258726865
1.77951539049
1.77951536064
1.77951535897
1.77951535887
1.77951535882
1.77951535791
1.7795153586
1.77951536165
1.77951551138
1.77952232162
1.77977726633
1.78727050954
1.9532966916
5.50611035174
130.258725589
1.77952219945
1.77952217142
1.77952216976
1.77952216925
1.77952216958
1.77952216937
1.77952216974
1.7795221723
1.77952232159
1.77952913279
1.7797840711
1.78727716809
1.95330169402
5.5061102338
130.258723636
1.77977709008
1.7797771126
1.77977711259
1.77977711356
1.77977711275
1.7797771137
1.77977711377
1.77977711621
1.77977726515
1.77978407106
1.78003885487
1.78752855629
1.95350852473
5.50613116736
130.258718794
1.7872692987
1.78727030888
1.78727033822
1.78727035714
1.78727032781
1.78727036179
1.78727036108
1.78727034994
1.78727047388
1.78727717082
1.78752857906
1.79494351087
1.9599244878
5.50727010802
130.258718235
1.95328383613
1.95329603885
1.95329648013
1.95329663795
1.95329634255
1.95329661156
1.9532966057
1.95329648705
1.95329635073
1.95330177876
1.95350867
1.95992419906
2.11103861331
5.55897162748
130.258666759
5.5060479079
5.50610879767
5.50611028776
5.50611086645
5.50610985825
5.50611047417
5.50611037138
5.50611029981
5.50610935445
5.50611056652
5.50613198358
5.50726971078
5.55897178001
7.69339910809
130.256573672
130.258723565
130.258725757
130.258725797
130.258725846
130.258724197
130.258724314
130.258726232
130.258726591
130.258727493
130.258727685
130.258716744
130.258718201
130.258666756
130.256573672
130.250271971
1.77972162235
1.77956095761
1.7795183561
1.77951536633
1.77951524105
1.7795152372
1.77951523692
1.77951523934
1.7795153893
1.7795221983
1.77977708845
1.78726925711
1.95328327428
5.5060418585
130.258730126
1.7795533887
1.77952045937
1.77951553155
1.77951522052
1.77951520767
1.77951520713
1.77951520677
1.77951520947
1.77951535951
1.77952217028
1.77977711164
1.78727029004
1.95329583737
5.50610381437
130.258716421
1.77951785748
1.77951551277
1.77951522339
1.77951520627
1.77951520548
1.77951520517
1.77951520568
1.77951520785
1.77951535784
1.77952216875
1.77977711278
1.78727033409
1.95329631746
5.50610491429
130.258716445
1.77951534152
1.77951521869
1.7795152062
1.77951520545
1.77951520534
1.77951520518
1.77951520498
1.77951520775
1.77951535784
1.77952216871
1.77977711281
1.78727034138
1.95329633164
5.50610456609
130.258716485
1.77951524006
1.77951520765
1.77951520527
1.77951520536
1.7795152049
1.77951520529
1.77951520541
1.77951520781
1.77951535829
1.77952216874
1.77977711229
1.78727032195
1.95329619085
5.50610446652
130.258721146
1.77951523737
1.77951520669
1.77951520535
1.77951520496
1.77951520507
1.77951520494
1.7795152051
1.77951520776
1.77951535788
1.77952216942
1.77977711332
1.78727035245
1.95329634121
5.50610486379
130.258716621
1.77951523683
1.77951520709
1.77951520506
1.77951520569
1.77951520498
1.779515205
1.779515205
1.77951520791
1.77951535783
1.77952216878
1.77977711316
1.787270354
1.95329638412
5.5061046325
130.258716692
1.77951523936
1.77951520947
1.7795152078
1.77951520778
1.77951520774
1.77951520778
1.77951520795
1.77951521186
1.7795153608
1.77952217163
1.7797771157
1.7872703265
1.95329618188
5.50610509118
130.258716507
1.77951538929
1.77951535947
1.77951535782
1.77951535777
1.77951535777
1.7795153583
1.77951535902
1.77951536076
1.77951551076
1.77952232278
1.77977726611
1.78727049968
1.9532965377
5.50610519459
130.258717301
1.77952219829
1.77952217027
1.77952216874
1.77952216874
1.77952216872
1.77952216942
1.77952216883
1.77952217159
1.77952232275
1.77952913301
1.77978407119
1.78727716365
1.95330152532
5.50610424106
130.258723665
1.77977708953
1.77977711181
1.77977711259
1.77977711244
1.77977711214
1.77977711309
1.77977711303
1.77977711586
1.77977726493
1.77978407112
1.78003885425
1.78752854818
1.95350834612
5.50612569025
130.258724528
1.78726929541
1.78727029852
1.78727033484
1.78727034085
1.78727032129
1.78727034978
1.78727035099
1.78727034583
1.78727046952
1.78727716499
1.787528572
1.79494350167
1.95992422468
5.50726506744
130.25872447
1.95328373092
1.95329583486
1.95329637482
1.95329630172
1.95329617794
1.95329631296
1.95329637635
1.95329636799
1.95329620134
1.9533015812
1.95350856048
1.9599240302
2.11103828638
5.55896594576
130.258666651
5.50604307132
5.50610311876
5.50610521
5.50610401991
5.50610482339
5.50610468757
5.50610470443
5.50610429635
5.50610348334
5.50610495498
5.50612685357
5.50726453269
5.55896613387
7.69338833478
130.256573496
130.258729828
130.258715896
130.258715919
130.258715967
130.258716623
130.25871663
130.258717346
130.258717618
130.258716867
130.258716619
130.258716682
130.258724311
130.258666648
130.256573496
130.250260289
1.79836240928
1.78439214736
1.77986341513
1.77953049805
1.77951572037
1.77951524903
1.77951523711
1.7795152393
1.77951538925
1.77952219826
1.77977708921
1.78726927178
1.95328328572
5.50604102997
130.258721186
1.78368395483
1.78009247933
1.77955236438
1.77951676156
1.77951525509
1.77951520831
1.77951520676
1.77951520942
1.77951535947
1.77952217024
1.77977711137
1.78727028287
1.95329569346
5.50610189263
130.258716073
1.77981133201
1.77955005041
1.77951728073
1.77951528831
1.77951520806
1.77951520531
1.77951520596
1.77951520782
1.7795153578
1.77952216871
1.77977711283
1.78727033186
1.95329620821
5.50610403439
130.258716094
1.77952737268
1.77951654709
1.77951528189
1.7795152085
1.77951520578
1.77951520519
1.77951520575
1.77951520774
1.77951535781
1.77952216867
1.77977711276
1.78727034074
1.95329632927
5.50610397966
130.258716125
1.77951558096
1.77951524483
1.77951520755
1.77951520545
1.77951520613
1.7795152053
1.77951520538
1.77951520776
1.77951535826
1.77952216867
1.77977711118
1.7872702978
1.95329604467
5.50610383249
130.258720769
1.77951524487
1.77951520849
1.77951520539
1.77951520493
1.77951520507
1.7795152049
1.77951520513
1.77951520772
1.77951535783
1.77952216968
1.77977711295
1.78727034687
1.9532963441
5.50610399713
130.258716211
1.77951523691
1.77951520711
1.77951520503
1.77951520597
1.77951520495
1.77951520497
1.77951520496
1.77951520785
1.77951535778
1.77952216875
1.77977711307
1.78727034996
1.95329637901
5.50610404852
130.258716232
1.7795152393
1.77951520942
1.77951520775
1.77951520774
1.77951520769
1.77951520772
1.779515208
1.77951521098
1.77951536081
1.77952217151
1.77977711435
1.78727030158
1.95329595246
5.50610413894
130.258716015
1.77951538926
1.77951535943
1.77951535777
1.77951535773
1.77951535773
1.77951535804
1.7795153583
1.77951536061
1.77951551062
1.77952232158
1.77977726575
1.78727049177
1.95329646391
5.50610423124
130.258716851
1.77952219826
1.77952217022
1.77952216868
1.77952216871
1.77952216867
1.77952216971
1.77952216872
1.77952217152
1.77952232184
1.77952913287
1.77978406954
1.78727713851
1.95330127256
5.50610343573
130.25872709
1.77977708936
1.77977711069
1.77977711229
1.77977711228
1.7797771113
1.77977711301
1.779777112
1.77977711562
1.77977726365
1.77978406951
1.78003885269
1.78752852064
1.95350813282
5.50612439348
130.258716498
1.78726928928
1.78727026784
1.78727033007
1.78727033551
1.78727030551
1.78727034872
1.78727032544
1.7872703384
1.78727044007
1.78727714255
1.7875285657
1.79494346954
1.95992420259
5.50726424995
130.258715369
1.9532836246
1.95329566549
1.95329624678
1.95329621859
1.95329609594
1.9532962976
1.95329628286
1.95329628936
1.95329597483
1.95330133531
1.95350843507
1.95992383014
2.11103821992
5.55896524643
130.258677578
5.50604215491
5.50610242612
5.50610430309
5.50610319954
5.50610393817
5.50610411653
5.50610405105
5.50610343017
5.5061026511
5.5061038899
5.50612491976
5.50726351132
5.55896535283
7.69338686706
130.256584482
130.258721222
130.258715556
130.258715574
130.258715605
130.258716346
130.258716329
130.258716849
130.258717154
130.258716336
130.258716054
130.258727782
130.25871537
130.258677578
130.256584481
130.250259462
2.95825246841
2.15279079865
1.80614218457
1.78081969842
1.77956098601
1.77951644727
1.77951526298
1.77951524092
1.77951539073
1.77952219967
1.77977708948
1.78726927074
1.95328319992
5.50603884262
130.258721164
2.11066464123
1.82218335883
1.78250482408
1.77965365223
1.77951983597
1.77951532576
1.7795152099
1.7795152101
1.77951536088
1.77952217156
1.7797771097
1.78727023589
1.95329503217
5.50609462808
130.258727219
1.80255193812
1.78229422969
1.77969379784
1.7795228971
1.77951544926
1.77951521159
1.77951520598
1.77951520886
1.77951535918
1.77952217006
1.7797771112
1.78727028628
1.95329568782
5.50610192663
130.258727238
1.78051841335
1.77963011091
1.77952214512
1.77951548857
1.77951521431
1.7795152057
1.77951520576
1.77951520856
1.77951535806
1.77952216988
1.77977711263
1.7872703342
1.95329626187
5.50610292651
130.258727242
1.77954503907
1.77951854326
1.77951540008
1.77951521349
1.77951520593
1.77951520605
1.77951520537
1.77951520868
1.77951535834
1.77952216926