/*--------------------------------*- C++ -*----------------------------------*\
| =========                 |                                                 |
| \\      /  F ield         | OpenFOAM: The Open Source CFD Toolbox           |
|  \\    /   O peration     | Version:  2406                                  |
|   \\  /    A nd           | Website:  www.openfoam.com                      |
|    \\/     M anipulation  |                                                 |
\*---------------------------------------------------------------------------*/
FoamFile
{
    version     2.0;
    format      ascii;
    arch        "LSB;label=32;scalar=64";
    class       volScalarField;
    location    "0.01";
    object      p;
}
// * * * * * * * * * * * * * * * * * * * * * * * * * * * * * * * * * * * * * //

dimensions      [0 2 -2 0 0 0 0];

internalField   nonuniform List<scalar> 
29768
(
0.0966780327595
0.0966853381088
0.0970617200982
0.0970184997328
0.0978705779188
0.0976834239399
0.0992566060849
0.0987048048803
0.10154907609
0.100116007549
0.105494849861
0.101893340595
0.112865577408
0.105734857435
0.128840080295
0.0966707591734
0.0966781393148
0.0970544781596
0.097011330474
0.0978630714128
0.0976760273622
0.0992483599372
0.0986965760431
0.10153914403
0.100105074956
0.105480013601
0.101876340461
0.112840516298
0.105704791324
0.128807320578
0.0970534077143
0.0970601143297
0.0974364143825
0.0973925421027
0.0982438370227
0.098056340212
0.0996280208606
0.0990765002719
0.101919661223
0.10048678028
0.105865921343
0.102268381011
0.113248399888
0.106123091629
0.129232823147
0.0969982278072
0.0970045153325
0.0973809500626
0.0973369042851
0.098187570828
0.0980005344966
0.0995701497656
0.099019704415
0.101858337023
0.100425511083
0.105793031853
0.102192262651
0.113148800087
0.106011479268
0.129113142025
0.0978544883006
0.0978598176513
0.0982359377871
0.0981905314788
0.0990397039865
0.0988514601512
0.100417942778
0.099867379742
0.102702508644
0.101272617065
0.106640775324
0.103048289408
0.114029797887
0.106907746826
0.130023503807
0.0976581477306
0.0976628391138
0.0980394107633
0.0979941474108
0.0988428354098
0.0986570591855
0.100220829184
0.0996768672891
0.10250468797
0.101086128814
0.10643762368
0.10285408216
0.113801126106
0.106675016146
0.129777430313
0.0992337416238
0.0992370220754
0.0996131419271
0.0995652280206
0.100410864311
0.100221835601
0.101776689162
0.101230242758
0.104040855679
0.102622062274
0.107952707163
0.104370344145
0.115325541344
0.10819935447
0.131319252535
0.0986753071731
0.098677838953
0.0990550045424
0.0990077325751
0.0998538528094
0.0996712640943
0.101224060846
0.100696536473
0.103499661571
0.102120289307
0.107435432589
0.103911672228
0.114837158461
0.107769185223
0.130871794005
0.101520673557
0.101521050809
0.101899009774
0.101846790209
0.102689509892
0.102499246196
0.10403486238
0.103499579346
0.106256668568
0.104869544116
0.110095105833
0.106556106109
0.117379797086
0.110231548911
0.13332717272
0.100083177461
0.100081950235
0.100461627593
0.100409081614
0.101255139078
0.101076041615
0.102611692541
0.102115782223
0.104865274685
0.10357778851
0.108796060285
0.105452060862
0.116301005691
0.109460223453
0.132553488774
0.105462305525
0.10545689271
0.105840898342
0.105776479888
0.106623207223
0.106427242334
0.107942037846
0.107430502822
0.110090387192
0.10879558144
0.113758468006
0.110385597903
0.120732473671
0.113590545714
0.136428807467
0.101858141467
0.101850283032
0.102240655509
0.102172849309
0.10302801378
0.102840933088
0.104356980894
0.103904048428
0.1065487124
0.105448910469
0.110382886816
0.107543816246
0.118004522037
0.112067932662
0.135161762367
0.11283023718
0.112814249595
0.113220445584
0.113129117613
0.114009189366
0.113787633037
0.11531174988
0.114829122977
0.117371915897
0.116297428749
0.120729270847
0.118004114481
0.126785433583
0.120118027886
0.14131522767
0.105698528264
0.105677679676
0.106094144094
0.105990955806
0.106886145552
0.10666067942
0.10818457155
0.107760294905
0.110222667107
0.109455730896
0.113586293569
0.112066500413
0.12011687203
0.116553064247
0.139703867668
0.12880349151
0.128780015122
0.1292036054
0.129092410765
0.130001615205
0.129762867499
0.131304171368
0.130862663639
0.133317986086
0.132548750727
0.136424269474
0.135160092752
0.1413138054
0.139703708444
0.148256510473
0.0960527811336
0.0960614571693
0.0963753031044
0.0963532523124
0.0970304044768
0.096928172035
0.0980755687841
0.0978059669331
0.0995966098829
0.0990458420219
0.101684208791
0.100798270952
0.104301120123
0.103563226703
0.106027272775
0.0960498884652
0.0960588129518
0.0963724194998
0.0963505632623
0.097027216609
0.0969250941042
0.0980714941709
0.0978017801137
0.0995903690817
0.0990387751637
0.10167395479
0.100785281756
0.104280795782
0.103538208025
0.106000535884
0.0963669820956
0.0963752947309
0.0966889314248
0.0966663770892
0.0973428152424
0.0972402464039
0.0983863727726
0.0981169408358
0.0999060800615
0.0993560874616
0.1019978116
0.101113873323
0.104624573981
0.103890073913
0.106359675791
0.0963349457107
0.0963432232311
0.0966566413697
0.0966340789388
0.0973096371558
0.0972072284318
0.0983510336936
0.0980816961834
0.0998655168668
0.0993135992144
0.101947147552
0.10105669484
0.104546471908
0.103799092765
0.106263485453
0.0970141487431
0.0970215823937
0.0973348015738
0.0973109483412
0.097985651501
0.0978821022798
0.0990243903981
0.0987547966747
0.100538089772
0.0999873314807
0.102629280138
0.101745959673
0.105262072264
0.104528421924
0.10700811779
0.0969038498827
0.0969109980945
0.09722429127
0.0972004227093
0.0978744054955
0.0977719270323
0.0989115163003
0.0986447419102
0.100421314113
0.0998737870906
0.102501369028
0.101616225525
0.105101281132
0.104352171071
0.106823055783
0.0980522757305
0.0980581318642
0.0983711738434
0.0983446593194
0.0990171282894
0.0989116412576
0.100046993244
0.0997778542482
0.101547317073
0.100999464073
0.10362394047
0.102742954905
0.106251326496
0.105515447003
0.108010418105
0.0977765865067
0.0977818835058
0.0980956804659
0.0980690033339
0.0987415763444
0.0986388066069
0.0997720423666
0.0995122242716
0.101274186759
0.100744564384
0.103351706369
0.102490969669
0.105967886679
0.10522853584
0.107710578226
0.0995675128463
0.0995705298643
0.0998848811988
0.0998526517483
0.100524684673
0.100414997697
0.101541112294
0.101273652219
0.103015450314
0.102477672964
0.105052106154
0.104175839736
0.107638160144
0.106900792577
0.109413466006
0.099012503248
0.0990143330792
0.099330641846
0.0992962595668
0.0999696810499
0.0998631061793
0.100989040916
0.100739780827
0.102473483653
0.101983509819
0.10453385496
0.103737883093
0.107175895777
0.106487403864
0.108981146614
0.10165056565
0.101649086714
0.101971903009
0.101929255353
0.10261105955
0.102490053368
0.103612839613
0.103346208006
0.10504717576
0.104533109489
0.107002803424
0.106161099004
0.109468128432
0.108712131921
0.111242471216
0.100762050187
0.100757660241
0.101085352901
0.101036088895
0.101725092549
0.101602229486
0.102729189968
0.102482819059
0.104168219524
0.103734484679
0.106158369955
0.105486992917
0.108768159076
0.108226915725
0.110704077181
0.104264358378
0.104252683354
0.104595421731
0.104525295211
0.105240497383
0.105086653498
0.106236800235
0.105959067138
0.107629765118
0.107171799566
0.10946463578
0.10876750395
0.111638069913
0.110888793116
0.11322972695
0.103525642736
0.103509375972
0.10386010455
0.103777207923
0.104506026644
0.104336829842
0.105500092794
0.105218975329
0.10689154291
0.106482526498
0.108707719395
0.108225322737
0.110887633147
0.110505952272
0.112853321513
0.105989644087
0.105971754621
0.106329632057
0.106241607218
0.106985617916
0.106807678149
0.107994935131
0.107700943917
0.109404076158
0.10897616544
0.111237895084
0.110702364051
0.113228385948
0.112853227099
0.114452363783
0.096083404443
0.0961181252922
0.0964272038165
0.0964484166337
0.0971332756361
0.0970935580286
0.0982613192048
0.0980779164462
0.0998942281871
0.0994564205839
0.102095678411
0.101376519886
0.10471687571
0.104232201382
0.106470056964
0.0960910703447
0.0961258774651
0.0964350317739
0.096456056517
0.0971405884732
0.0971005090567
0.0982673023539
0.0980834154837
0.099897598493
0.0994591637886
0.102093634999
0.101371452561
0.104703587136
0.104213880239
0.106449415345
0.0964168015085
0.0964500715839
0.0967599849358
0.0967796983527
0.0974647405148
0.0974239975937
0.0985911718216
0.0984081008826
0.100223306149
0.0997892073767
0.102426818456
0.101710927158
0.105057319843
0.104577490833
0.106818810687
0.0964183207615
0.0964495851463
0.0967606959325
0.0967782069795
0.0974632644079
0.0974206015391
0.09858583812
0.0984013290275
0.100210998674
0.0997758707002
0.102400147838
0.101676739077
0.104999587197
0.104505100768
0.106740012449
0.0971139745988
0.0971436265675
0.0974554525751
0.0974712093499
0.0981564220653
0.0981126173485
0.0992771866987
0.099093719897
0.100902782822
0.100473812597
0.103101776006
0.102389270787
0.105736574705
0.105260671948
0.107506230331
0.097061056518
0.0970878067344
0.097401612404
0.097414413567
0.0981003000783
0.0980544472323
0.0992169695569
0.0990329879138
0.100834981939
0.100405643218
0.103017370041
0.10229846267
0.105611291349
0.105114745584
0.107351216943
0.0982349830355
0.0982597219442
0.0985742672935
0.098583917828
0.0992692909816
0.0992202214418
0.100379519535
0.10019420716
0.101989954192
0.101563844373
0.104171961155
0.103463064117
0.106798414152
0.106323808476
0.108572399312
0.0980432864709
0.098065132741
0.098382725859
0.0983896148004
0.0990775527229
0.0990274856022
0.100186401569
0.100004392533
0.101794241435
0.101376157127
0.103969131967
0.10326838893
0.106567408927
0.106078864334
0.108319253306
0.0998626066458
0.0998814899372
0.100200522828
0.100201057435
0.100888611605
0.100830758259
0.101983506683
0.101795057539
0.103566956927
0.10314651485
0.105709493193
0.105010985239
0.108300907738
0.107821050434
0.110062964857
0.0994198986013
0.0994363498159
0.0997612780819
0.0997596787573
0.100454451912
0.100395695624
0.101552302781
0.10137171343
0.103141582626
0.102743820252
0.105301234859
0.104648180463
0.107914972627
0.107461076859
0.109703134944
0.102060270682
0.102071331163
0.102399753906
0.102384299616
0.103082938846
0.103007553435
0.104160625441
0.103964641027
0.105704523122
0.105301082826
0.107774301165
0.107114759488
0.110259948409
0.109787768962
0.111981135163
0.10133858215
0.101345636596
0.101681133857
0.101657542593
0.102367579074
0.102285486467
0.103448822427
0.103260891309
0.105003095324
0.104645100352
0.107111803788
0.106557797553
0.109718586449
0.109342577879
0.111569709696
0.104678918861
0.104677420726
0.105027385035
0.104980029122
0.105714607931
0.105597929462
0.106783786956
0.106559511482
0.108292573516
0.107911502695
0.110256550734
0.10971825685
0.112540516255
0.112116717561
0.114141506519
0.104193628974
0.104187135994
0.104546878243
0.104484949744
0.10523796875
0.105100762056
0.106308397744
0.10607029146
0.107811875808
0.107456839686
0.109783433299
0.109341301247
0.112115547782
0.111748549404
0.113855101275
0.106431203638
0.106422328164
0.106787919747
0.106719560212
0.107483253444
0.107336972187
0.108556727212
0.108310457414
0.110053550392
0.10969872116
0.111976597125
0.111568312304
0.114140181084
0.113855094058
0.115692126369
0.0941472254612
0.0941658612609
0.0943797449778
0.0943956758023
0.0948300448229
0.0948233188912
0.0954886574117
0.0954329425775
0.0963167956103
0.0961984256616
0.0972021253549
0.0970611359677
0.0978561175204
0.0977158553714
0.0980809355166
0.0941543710524
0.0941744448106
0.0943870285565
0.094404102582
0.0948371103749
0.0948309590816
0.0954948315514
0.0954390444323
0.0963209774616
0.0962017075541
0.0972023924938
0.0970591034418
0.0978488986642
0.0977051510026
0.0980690821388
0.0943699418668
0.0943884878591
0.0946019804527
0.094617532315
0.0950513703803
0.0950442225395
0.0957090529583
0.0956532732485
0.0965370827917
0.0964194480916
0.0974246688381
0.0972860107282
0.098085221238
0.0979486045173
0.0983141109117
0.0943757283187
0.0943953809873
0.0946076278422
0.0946237704535
0.0950560584304
0.0950487413372
0.0957112300085
0.0956543561011
0.0965339812437
0.0964135779961
0.0974110008304
0.0972659972574
0.0980503815974
0.097904082098
0.0982656573022
0.0948109290424
0.0948291504081
0.0950419787569
0.0950564061043
0.0954892997582
0.0954807353501
0.0961441852161
0.0960874017034
0.0969696903721
0.0968518223301
0.0978570006913
0.0977199773857
0.0985217264302
0.0983883932955
0.098753704777
0.0947961114871
0.0948145627803
0.0950268306032
0.0950408952502
0.0954728113611
0.0954633887151
0.0961245768355
0.0960664993425
0.0969436224842
0.0968230203116
0.0978171565484
0.0976722418459
0.0984514387992
0.0983047993962
0.0986622811333
0.0954614595771
0.095478519803
0.095691373669
0.0957030705033
0.0961357879922
0.0961239995308
0.0967861848412
0.0967270361543
0.0976064318866
0.0974878153395
0.0984902361581
0.0983534995255
0.099154941776
0.0990237893613
0.0993890794328
0.0953998675941
0.0954162798168
0.0956296571928
0.0956399005533
0.0960730151297
0.0960597798129
0.0967210194353
0.0966615060209
0.0975363669006
0.0974182334228
0.0984088880763
0.0982674991186
0.0990428263949
0.0988996605155
0.0992499553768
0.096283142104
0.0962977600049
0.0965126533638
0.0965187662541
0.0969543331063
0.0969359414503
0.0975993684905
0.0975353207113
0.098412220368
0.0982927250056
0.0992897501124
0.0991516250438
0.0999505618707
0.0998190938835
0.100186927153
0.0961608880343
0.0961740080271
0.0963910001552
0.0963939603739
0.0968323169276
0.0968109947978
0.0974764928196
0.0974128651551
0.0982883756503
0.0981743274666
0.0991606919762
0.0990279924853
0.0998026456299
0.0996694156944
0.100010132966
0.0971637137093
0.0971739433834
0.0973951721943
0.0973904317924
0.0978363336538
0.0978040509255
0.0984777050978
0.0984023928478
0.0992842129648
0.099159601117
0.100153576301
0.100015191418
0.100820398129
0.100686057732
0.101066708061
0.0970205466485
0.097028063286
0.0972541918805
0.0972428412708
0.0976968411533
0.0976565323145
0.0983383682062
0.0982583629087
0.0991433720712
0.0990241874522
0.100012350521
0.099891345589
0.100681349311
0.10055957985
0.100898939751
0.0978146613281
0.0978171671306
0.0980524263375
0.0980264210792
0.0984975447022
0.0984348501302
0.099138740365
0.0990327756213
0.0999412542764
0.0997979370986
0.100816569674
0.100680513129
0.101551705846
0.101445159347
0.101861458364
0.0976738367196
0.0976727495787
0.09791521344
0.0978794798747
0.0983635661504
0.0982875706752
0.0990068885773
0.0988889502777
0.0998090321468
0.0996639876453
0.100681358633
0.100557843083
0.101444014173
0.101399830985
0.101806767594
0.0980386740865
0.098036722112
0.0982804738737
0.0982410382607
0.0987286358629
0.0986449836149
0.0993719485094
0.0992391371089
0.100176649911
0.100004561161
0.101061801716
0.100897042995
0.101860085383
0.101806646298
0.102310162748
0.0937410737107
0.0938339846036
0.0940003190489
0.0941093944618
0.0945094646347
0.0946104981214
0.0952559278415
0.0953236161796
0.0962042985053
0.0962272279087
0.0972593426803
0.0972844126856
0.0981912200664
0.098210092791
0.0985041970945
0.0937685609112
0.0938612805214
0.0940281770635
0.0941357978681
0.0945355238038
0.094634599829
0.0952787902223
0.0953443818118
0.0962228529638
0.0962434109954
0.0972718460584
0.0972936476133
0.0981942419983
0.0982092045843
0.0985017922936
0.0939814829998
0.0940700680035
0.0942401505789
0.0943449389569
0.0947478226734
0.094845317454
0.095492506631
0.0955579852926
0.0964399109072
0.0964623663735
0.0974964775201
0.0975230202404
0.0984348247255
0.0984565264687
0.0987522262649
0.0940512941698
0.0941300311253
0.0943062914534
0.0944005574435
0.0948062732738
0.094894399022
0.0955411263075
0.0955986933403
0.0964765453553
0.0964914757713
0.0975165077923
0.0975335001033
0.098427890056
0.0984380564459
0.0987293624782
0.0944781160558
0.0945545834459
0.0947335146348
0.0948260249974
0.0952352302943
0.0953222631834
0.0959728293367
0.0960309053068
0.0969136399943
0.0969323191692
0.0979671609212
0.0979924830353
0.0989076716577
0.0989302586356
0.0992275179471
0.0945586680101
0.0946226570888
0.0948093402125
0.0948884341988
0.0953016976288
0.0953764735579
0.0960269628578
0.0960745162375
0.0969518084952
0.0969606537689
0.0979825711338
0.0979944718153
0.0988830917178
0.0988881371924
0.099178462727
0.0952173717135
0.0952791803356
0.0954686430273
0.095545102624
0.0959622014632
0.0960343772483
0.0966890544718
0.0967354086001
0.0976179192198
0.097630228813
0.0986630760128
0.0986841442986
0.0995991548186
0.0996195358836
0.0999179664133
0.095275725301
0.0953263974036
0.0955232258677
0.0955870018884
0.0960089368569
0.0960689342567
0.0967245839138
0.0967600742861
0.0976385423911
0.0976411184755
0.098660062958
0.0986671825534
0.0995504490759
0.0995502408793
0.0998399221485
0.0961619291741
0.0962095838257
0.0964100995418
0.0964686814051
0.0968956791444
0.096949066584
0.0976100231066
0.0976405078596
0.0985241516625
0.0985258209413
0.0995526796842
0.0995658044785
0.100473758267
0.100487355628
0.100786080118
0.0961812497456
0.0962202219178
0.0964276443371
0.0964749038013
0.0969086135369
0.0969503783216
0.0976162955162
0.097636497824
0.0985198562225
0.0985123245144
0.0995289870238
0.0995299840175
0.100407440965
0.100399979809
0.100689226853
0.0972150397873
0.0972495380175
0.097463110422
0.0975005996872
0.0979443994203
0.0979726871293
0.098649683843
0.0986556257621
0.0995469347407
0.0995290474992
0.100548687233
0.100547982749
0.101439044183
0.101440635555
0.101739656246
0.0972391033216
0.097266770938
0.0974878058206
0.0975134798287
0.0979671974284
0.0979809025108
0.0986678023126
0.0986593428965
0.0995568918279
0.0995267755598
0.100544681602
0.10052796838
0.101400630294
0.101370006043
0.101659549116
0.0981459508681
0.0981667047599
0.0983994466638
0.0984072782626
0.0988820450233
0.0988689959444
0.0995823502354
0.0995421269932
0.100464328875
0.100403805376
0.101435256731
0.101400309876
0.102289990652
0.102276626089
0.102588956526
0.0981649454606
0.0981810493393
0.0984209968927
0.0984168713749
0.0989042230029
0.0988734740176
0.0996021231094
0.0995413074636
0.100477171135
0.100395630418
0.101435928298
0.101368754739
0.102275400741
0.10226520649
0.102582995747
0.0984587105073
0.0984734834565
0.0987163619976
0.0987080160431
0.0992011660553
0.0991636353656
0.0999002642291
0.0998308271887
0.100775640208
0.100684730988
0.101734738018
0.101658191464
0.102587569023
0.102583022699
0.10302033709
0.0910419581529
0.091057937704
0.0912016695482
0.0912339746216
0.0914929951314
0.0915330178095
0.0918875805435
0.0919221659413
0.0923317629917
0.0923541630789
0.0927407964062
0.0927535317635
0.0929768909831
0.0929328169385
0.0929768593443
0.091053682496
0.0910793172433
0.0912146075185
0.0912549394753
0.0915071350114
0.0915517967057
0.0919015694719
0.0919379628342
0.0923440631417
0.0923663554494
0.0927497351419
0.0927609098775
0.0929804174443
0.092934341381
0.0929775101941
0.0911894192351
0.0912072858871
0.091347988203
0.0913813421046
0.0916375842359
0.0916777335707
0.0920304158085
0.092064680303
0.0924736988947
0.0924962401252
0.0928835624708
0.0928973033676
0.0931232206392
0.0930816092828
0.0931261660665
0.0912144542437
0.0912426896341
0.0913747262879
0.0914159781231
0.0916653393254
0.0917090602394
0.0920564574341
0.0920906999971
0.0924948192838
0.0925146639241
0.0928953732802
0.0929038269059
0.093119821558
0.0930722036885
0.0931143798228
0.0914681170059
0.091490298146
0.091625328153
0.0916608263222
0.0919124704888
0.0919524702079
0.0923020179236
0.0923349929061
0.0927429090884
0.0927641374456
0.0931510336228
0.0931653093867
0.0933928853457
0.0933541484379
0.0933988961393
0.0915021289912
0.0915300570659
0.0916597333791
0.0916989063418
0.0919461020733
0.0919865252819
0.0923320736918
0.0923626374963
0.0927659359519
0.092781961838
0.0931603571695
0.0931663731413
0.0933794441631
0.0933315159513
0.0933726723795
0.0918521353824
0.0918766913314
0.0920074993386
0.0920426806014
0.0922912529819
0.0923285715776
0.0926767502303
0.092706297219
0.0931145458028
0.0931314154291
0.0935182351453
0.0935320034385
0.0937614795776
0.0937259911336
0.0937708680052
0.0918831251394
0.0919091544419
0.0920379055421
0.0920726290105
0.0923197034428
0.0923543542698
0.0927009994043
0.0927261839644
0.0931307162218
0.0931407546991
0.0935197162648
0.0935237396054
0.0937368225685
0.0936901608217
0.0937307462344
0.0922886535638
0.0923127326179
0.0924426457946
0.0924737045362
0.0927236049212
0.0927545455105
0.09310578629
0.093127885997
0.0935387977998
0.0935484845893
0.0939391089358
0.0939502713008
0.094185534634
0.0941531346154
0.0941992177781
0.0923094655653
0.0923322802335
0.0924630617107
0.0924906419629
0.0927420165296
0.0927673375744
0.0931191442668
0.0931342596026
0.0935443856621
0.0935465072995
0.093932961818
0.093934292904
0.094155910065
0.0941113317361
0.0941532709234
0.0926928017858
0.0927133892014
0.0928469329072
0.0928687822579
0.0931256064145
0.0931431457778
0.0935029722202
0.0935108006528
0.093932441738
0.0939308329174
0.0943369307623
0.0943416807737
0.09459685333
0.0945657631422
0.0946178187526
0.0927050772176
0.0927232224194
0.092859741866
0.0928757237385
0.0931383874658
0.0931473378066
0.0935147268372
0.0935126852414
0.0939411437354
0.0939296825897
0.0943388534816
0.0943326945523
0.0945831353838
0.0945375088243
0.0945861148548
0.0929261164034
0.0929408714699
0.0930832377198
0.0930897632097
0.0933635961743
0.0933584860947
0.0937420096526
0.0937239773727
0.0941744511526
0.0941496979163
0.094592330663
0.0945817421078
0.0948919301068
0.0948681268807
0.0949412273579
0.0928823993488
0.0928949919196
0.0930418252868
0.0930422670164
0.0933248439414
0.093310530001
0.0937062789371
0.0936770945898
0.0941415839266
0.0941046716874
0.0945605242225
0.0945353365094
0.0948670074809
0.09486939978
0.0949493779088
0.0929256669227
0.0929375623109
0.093085619763
0.0930838574191
0.0933688822716
0.0933511409048
0.093750527925
0.0937171914964
0.0941871295375
0.0941461831391
0.0946121191865
0.0945835765246
0.0949396801911
0.0949491019464
0.0950904521546
0.0900405871412
0.090289986806
0.0902582374783
0.0905244408591
0.0906545027163
0.0908992184435
0.0911752767142
0.0913814455488
0.0917600716692
0.0919285633443
0.0923305951718
0.0924721590807
0.0927647097103
0.0928109095316
0.0928640234512
0.0901136298135
0.0903526822032
0.0903282903188
0.0905803572853
0.0907125338785
0.0909461117249
0.0912205426152
0.0914191215085
0.0917945220123
0.0919576705359
0.0923558395504
0.0924931274015
0.0927808453296
0.0928240472387
0.0928761581239
0.0902073143969
0.0904418730555
0.0904249136982
0.0906771426894
0.09081820375
0.091052593079
0.0913351182135
0.0915348614852
0.0919174133261
0.0920821628318
0.0924869078063
0.0926271074678
0.0929232370301
0.0929708754535
0.0930249520313
0.0903997791402
0.0905772462332
0.0905954644876
0.090794276563
0.0909540076982
0.0911490271244
0.0914380187345
0.0916116700606
0.0919933192855
0.0921405821637
0.0925394753856
0.0926665913659
0.0929512363435
0.0929899198988
0.093041362334
0.0905837969658
0.090769879021
0.0907888063921
0.0909966213933
0.0911632149355
0.091364188778
0.0916622229337
0.0918403344016
0.0922310528776
0.0923825722308
0.0927912305349
0.0929241928119
0.0932239550462
0.0932711353914
0.0933262584777
0.0908092389797
0.0909376503592
0.0909922844078
0.0911442543147
0.091330975626
0.0914876510643
0.0917940083923
0.0919405392834
0.0923306129364
0.0924592955502
0.092860193805
0.0929750539825
0.0932577443712
0.0932913791655
0.0933424609518
0.0911021475811
0.0912374976822
0.0912927552906
0.0914513723282
0.0916448948046
0.0918061433411
0.0921220448618
0.0922715130605
0.0926715669207
0.0928042537363
0.0932168932891
0.0933384069713
0.0936410179533
0.0936857758748
0.0937418992898
0.0913110530176
0.0914036787888
0.091485916171
0.0916008920885
0.0918110546879
0.0919350789194
0.0922581052486
0.0923784237886
0.0927777275016
0.0928874695809
0.093291182321
0.0933927762178
0.0936750573975
0.0937033216788
0.0937544805738
0.091691187545
0.0917855796012
0.0918710656989
0.0919871480445
0.0922047142847
0.0923280863973
0.0926606814144
0.092779555216
0.093189745027
0.0933000858751
0.093716961189
0.0938238060896
0.0941284050463
0.0941681473237
0.0942254045632
0.091867872453
0.0919348352004
0.092037939075
0.0921238214042
0.0923537140122
0.0924486060915
0.0927882609478
0.0928825359515
0.0932939258409
0.0933826142745
0.09379218621
0.0938781565903
0.0941629057516
0.0941838569777
0.0942359383452
0.0922670278042
0.0923322081065
0.0924403986942
0.0925217406542
0.0927607140361
0.0928485313429
0.0931996861828
0.0932853902185
0.0937098752082
0.0937915369363
0.0942180939916
0.0943036891252
0.0946135049269
0.0946431997107
0.0947035989958
0.0924153687068
0.09246475594
0.0925840552127
0.0926451960803
0.0928942266018
0.0929603766601
0.0933197565344
0.0933841729949
0.0938141183926
0.0938745848065
0.0943004538396
0.094362850511
0.0946594363507
0.0946646187851
0.0947202088539
0.0927058094578
0.0927499521051
0.0928780310511
0.0929276975235
0.0931919974789
0.0932413357583
0.0936206339511
0.0936651193311
0.0941172905734
0.0941583368404
0.0946091652457
0.0946587311652
0.0949886797591
0.0950036859602
0.0950764358637
0.0927548405722
0.0927930036663
0.0929275072407
0.0929664187766
0.093240068453
0.0932750102324
0.0936655554273
0.0936932816808
0.0941566995644
0.0941789351349
0.0946381529345
0.0946631898358
0.0950025496289
0.0950300099366
0.0951067069236
0.0928068790736
0.0928444896126
0.0929805774973
0.0930172725261
0.0932943139208
0.0933255662043
0.0937209545005
0.0937439950091
0.0942133884293
0.09423065764
0.0946981256493
0.0947185207491
0.0950749831187
0.0951066381578
0.095239310475
0.0871542390567
0.0870856618893
0.0872767837611
0.0872569003475
0.0874861003707
0.0875176420535
0.0877593386168
0.0878179847133
0.0880488323542
0.0881091363585
0.0882946757974
0.0883412845852
0.0884328167459
0.0884190096828
0.0884279661461
0.0871298318793
0.0871400842852
0.0872691241016
0.0873081403648
0.0874959733318
0.0875578715805
0.0877770364914
0.0878482319402
0.0880673357217
0.0881316691895
0.0883106187795
0.0883575059845
0.0884448912265
0.0884302660002
0.0884384729844
0.0872691937683
0.0872182960921
0.0873869579365
0.0873806345029
0.087591473296
0.0876292017985
0.087859820296
0.0879198456476
0.0881449421052
0.0882052009176
0.0883883159098
0.0884352599006
0.0885270402961
0.0885144219247
0.0885235696279
0.0872551804558
0.0872872579466
0.0873958254802
0.0874507725401
0.0876218802044
0.0876900491841
0.0878982829941
0.0879689673167
0.0881812950022
0.0882424734526
0.0884169782703
0.0884608834036
0.0885449802324
0.0885291282468
0.0885367038232
0.0874560951648
0.0874454369643
0.0875755266084
0.0875968959011
0.0877791003852
0.0878292024043
0.0880428323198
0.0881049356154
0.0883206446992
0.0883795557196
0.0885585991277
0.0886046064301
0.0886956983479
0.0886840772204
0.0886932754735
0.0874899496548
0.0875241827947
0.0876199880732
0.0876750645032
0.0878334535205
0.0878993482652
0.0880974903538
0.0881629621747
0.0883685352321
0.088424063147
0.0885945107599
0.0886344973651
0.0887159024636
0.0886990715479
0.0887061896543
0.087711257987
0.0877266496694
0.0878286791985
0.0878668998981
0.0880282538499
0.0880834926434
0.0882825287405
0.0883432434239
0.0885510270868
0.0886058553147
0.0887820762569
0.0888254620744
0.0889163678956
0.0889053390867
0.0889147200504
0.0877751868378
0.0878070929675
0.0878938904754
0.0879439536045
0.0880933193186
0.0881518372121
0.0883429205624
0.0884001589169
0.088601500076
0.088649541697
0.0888187944718
0.0888542983984
0.0889353315488
0.0889179182189
0.0889251141768
0.0879900304358
0.0880170275922
0.0881030126959
0.0881458182846
0.0882949508391
0.0883476128924
0.0885395939854
0.0885933198727
0.0887982971462
0.0888457266745
0.0890230765788
0.0890620149675
0.0891554161053
0.0891446332065
0.0891548879684
0.0880567207983
0.0880862043201
0.0881681740442
0.0882107911258
0.0883565050045
0.0884050213414
0.0885945507815
0.0886411815502
0.0888437002393
0.0888828413646
0.0890562385902
0.0890866368483
0.0891721757232
0.0891547025229
0.0891631151542
0.0882311396454
0.0882588826603
0.08834033205
0.0883783550539
0.0885257301878
0.0885687540768
0.0887626899616
0.0888045850318
0.0890147593931
0.0890514662225
0.0892357228206
0.089268536207
0.0893702736637
0.089359939568
0.0893730106499
0.0882827522933
0.0883088341388
0.0883909078374
0.088424648067
0.0885737009275
0.0886100241063
0.0888063627536
0.0888400988253
0.0890525825469
0.0890806915446
0.0892663827792
0.0892904338917
0.0893894316012
0.0893712909323
0.0893830335766
0.0883681007019
0.0883920098101
0.0884764899008
0.0885043725414
0.0886590526052
0.0886872762263
0.0888923052354
0.0889174582032
0.0891418919861
0.0891631185221
0.0893648295142
0.0893868368357
0.0895114025476
0.0895066896313
0.0895284312489
0.0883569527065
0.0883797028214
0.0884660478711
0.0884905131751
0.0886489826822
0.0886719200621
0.0888821716606
0.0889009235674
0.089131404101
0.0891459273413
0.089354240759
0.0893683339809
0.0895057865481
0.0895179206915
0.0895441503324
0.0883640804733
0.0883865009287
0.0884734399713
0.0884967443233
0.0886566076589
0.0886778332537
0.0888902217808
0.0889070940713
0.0891405781323
0.0891534933331
0.0893664350727
0.0893793700819
0.0895267557005
0.0895435633074
0.0895957297143
0.0850654272363
0.085909844891
0.0854033893979
0.0861812244986
0.0859294535816
0.0865134034372
0.0864786418421
0.0868920724229
0.0869873020466
0.0872704866842
0.087412730575
0.0875973066969
0.0877112014432
0.0877619637416
0.0877763699317
0.0854327622358
0.0860942262719
0.0856953237233
0.0863185572164
0.0861116324975
0.0866147114431
0.0865873116568
0.0869635817983
0.0870541137676
0.0873200129719
0.0874557135535
0.0876315870396
0.0877395680641
0.0877869999606
0.0878005350163
0.0852156093243
0.0859821175354
0.0855561494472
0.086265407745
0.0860642561157
0.086611680578
0.0866002540903
0.0869949574254
0.0870999167694
0.0873731497859
0.0875199230327
0.0876999674028
0.0878166655067
0.0878674692147
0.0878825462653
0.0859421563749
0.0863190123332
0.0861192853479
0.0865184277519
0.0864339125224
0.0867955143467
0.0868296374104
0.0871254349503
0.087242100696
0.0874648711305
0.0876093063151
0.087763716504
0.0878715784234
0.0879127329122
0.0879263095874
0.0857231487251
0.0862465907836
0.085989023447