/*--------------------------------*- C++ -*----------------------------------*\
| =========                 |                                                 |
| \\      /  F ield         | OpenFOAM: The Open Source CFD Toolbox           |
|  \\    /   O peration     | Version:  2406                                  |
|   \\  /    A nd           | Website:  www.openfoam.com                      |
|    \\/     M anipulation  |                                                 |
\*---------------------------------------------------------------------------*/
FoamFile
{
    version     2.0;
    format      ascii;
    arch        "LSB;label=32;scalar=64";
    class       surfaceScalarField;
    location    "0.01";
    object      phi;
}
// * * * * * * * * * * * * * * * * * * * * * * * * * * * * * * * * * * * * * //

dimensions      [0 3 -1 0 0 0 0];

oriented        oriented;

internalField   nonuniform List<scalar> 
86897
(
-3.251245023e-08
-3.14438029276e-08
0.000888947992501
-6.33416930463e-08
-3.14144107526e-08
0.000888951014311
-9.65631920519e-08
-3.13963773553e-08
0.00088895072185
-1.31240115721e-07
-3.13504348426e-08
0.000888944136634
-1.72033523572e-07
-3.12950831509e-08
0.000888976868985
-2.1562070722e-07
-3.12470749722e-08
0.000888952956041
-2.7299626987e-07
-3.11470905553e-08
0.000888966652098
-3.34809939648e-07
-3.11178536746e-08
0.000888997736586
-4.28401673513e-07
-3.09900981495e-08
0.000889002728725
-5.27546075806e-07
-3.10583359251e-08
0.000889008355289
-7.03578993646e-07
-3.08564918844e-08
0.000889111719424
-8.77779443377e-07
-3.09527472363e-08
0.000889083320238
-1.23597984798e-06
-3.08687021745e-08
0.000889267243439
-1.31267131974e-06
-3.10187067531e-08
0.000889012557063
-4.31370018153e-08
0.000887608352871
-3.25057014121e-08
-6.23418353417e-08
0.000888951109577
-6.33225603616e-08
-6.22856977827e-08
0.000888954132937
-9.65294066021e-08
-6.22520238673e-08
0.000888953840641
-1.31192603904e-07
-6.21689792094e-08
0.0008889472599
-1.71968108248e-07
-6.20686054165e-08
0.000888979993935
-2.15534307758e-07
-6.19907726458e-08
0.000888956088121
-2.72882348306e-07
-6.18071289033e-08
0.000888969786335
-3.34653566747e-07
-6.17819929246e-08
0.000889000880361
-4.28188523165e-07
-6.15498690084e-08
0.000889005873025
-5.27244399109e-07
-6.17319947808e-08
0.000889011507843
-7.03159758961e-07
-6.13665672169e-08
0.000889114870463
-8.77179709234e-07
-6.16260132488e-08
0.000889086471554
-1.23517481667e-06
-6.14252069875e-08
0.000889270330002
-1.31178400073e-06
-6.12667549296e-08
0.000889015302355
-8.35082483215e-08
0.000887610365453
-3.24641788647e-08
-9.55892363571e-08
0.000888950764567
-6.32597356843e-08
-9.55069692188e-08
0.000888953794974
-9.64425084425e-08
-9.54556501022e-08
0.000888953497912
-1.31093547546e-07
-9.5330228873e-08
0.000888946923837
-1.71860638864e-07
-9.51739578403e-08
0.000888979650663
-2.15437316429e-07
-9.50529638693e-08
0.000888955750481
-2.72824005599e-07
-9.4746746558e-08
0.00088896943795
-3.34664443702e-07
-9.46993382184e-08
0.000889000536091
-4.28348795434e-07
-9.42671606496e-08
0.000889005513327
-5.27623470332e-07
-9.44928050794e-08
0.000889011147179
-7.03913893219e-07
-9.38013443395e-08
0.000889114503538
-8.78403678232e-07
-9.41667612677e-08
0.000889086142252
-1.23704511624e-06
-9.37984691138e-08
0.000889270126478
-1.31385206132e-06
-9.44389702109e-08
0.000889015757601
-1.31498901908e-07
0.000887613250185
-3.24286864839e-08
-1.3034660919e-07
0.000888944243537
-6.3199839702e-08
-1.30243015081e-07
0.000888947285352
-9.63487169206e-08
-1.30181165595e-07
0.000888946985938
-1.30974502433e-07
-1.30023041585e-07
0.000888940430249
-1.71700717825e-07
-1.29827144239e-07
0.000888973157482
-2.15233859954e-07
-1.29691541662e-07
0.000888949283431
-2.72556126733e-07
-1.29285825172e-07
0.000888962973084
-3.34288426265e-07
-1.29295001528e-07
0.000888994106123
-4.27833954573e-07
-1.2869319868e-07
0.000888999083341
-5.2685986836e-07
-1.29107938911e-07
0.000889004752832
-7.02804145955e-07
-1.28177108191e-07
0.000889108098234
-8.76723964868e-07
-1.28891546002e-07
0.000889079756418
-1.23471225176e-06
-1.28204765961e-07
0.000889263506461
-1.31116942094e-06
-1.28157414145e-07
0.000889007953914
-1.74313719411e-07
0.000887602757083
-3.23511402179e-08
-1.71193403689e-07
0.000888976941699
-6.30741228976e-08
-1.7106647297e-07
0.00088897999134
-9.61627575482e-08
-1.70998197367e-07
0.000888979683879
-1.30748577267e-07
-1.70794577253e-07
0.000888973135432
-1.71426431416e-07
-1.70551236838e-07
0.000889005847251
-2.14943273012e-07
-1.70375188454e-07
0.00088898197862
-2.72285683186e-07
-1.69802698894e-07
0.00088899563744
-3.34086823513e-07
-1.69823249843e-07
0.000889026774763
-4.27874565974e-07
-1.68826325395e-07
0.000889031699055
-5.27249403167e-07
-1.69316092388e-07
0.000889037361185
-7.03925961171e-07
-1.67698658348e-07
0.000889140643512
-8.78779120762e-07
-1.68635743346e-07
0.000889112375583
-1.23826463705e-06
-1.67337924423e-07
0.000889296396966
-1.31528019708e-06
-1.69252428999e-07
0.000889042556091
-2.35498145447e-07
0.000887643682324
-3.23036867049e-08
-2.14866216007e-07
0.000888953066376
-6.3006995436e-08
-2.14717772453e-07
0.000888956132821
-9.60580262879e-08
-2.14657759964e-07
0.000888955822197
-1.30635786977e-07
-2.14408988337e-07
0.000888949303877
-1.71276762358e-07
-2.14147034215e-07
0.000888982014903
-2.1478137525e-07
-2.13956533924e-07
0.000888958197713
-2.72077598585e-07
-2.1325231666e-07
0.000888971857617
-3.33795128384e-07
-2.13408956873e-07
0.000889003081427
-4.274672504e-07
-2.12046143064e-07
0.000889008003739
-5.26515726957e-07
-2.12957540447e-07
0.000889013801729
-7.02739245237e-07
-2.10748533583e-07
0.000889117051607
-8.76626247334e-07
-2.12544462733e-07
0.000889088907557
-1.23502444723e-06
-2.10225876541e-07
0.000889272398055
-1.31105436923e-06
-2.11366679283e-07
0.000889015922501
-2.85843197628e-07
0.000887610402387
-3.21838905451e-08
-2.72312000275e-07
0.000888966742089
-6.2802229776e-08
-2.72137099781e-07
0.00088896981591
-9.57280215656e-08
-2.7211357597e-07
0.000888969493241
-1.3020679641e-07
-2.71800616636e-07
0.000888962982136
-1.70680868566e-07
-2.71556638218e-07
0.00088899566183
-2.14055947513e-07
-2.71319605201e-07
0.000888971849925
-2.71183676738e-07
-2.70444824971e-07
0.00088898543203
-3.32782808394e-07
-2.7068774958e-07
0.000889016656128
-4.26507296186e-07
-2.68622849472e-07
0.000889021413003
-5.25699807097e-07
-2.69855477334e-07
0.000889027202261
-7.02799406263e-07
-2.66028671809e-07
0.000889130157958
-8.77772096326e-07
-2.68580800489e-07
0.000889102120871
-1.23886348532e-06
-2.63978542877e-07
0.000889285955967
-1.31593873074e-06
-2.6991119877e-07
0.000889033398103
-3.73020362037e-07
0.000887642350143
-3.21492245248e-08
-3.34212605417e-07
0.000888997845769
-6.27790109369e-08
-3.3400067886e-07
0.000889000938357
-9.56857993166e-08
-3.3404114694e-07
0.000889000612658
-1.30226303916e-07
-3.33623573194e-07
0.000888994141616
-1.70714318827e-07
-3.33443982683e-07
0.000889026820732
-2.1422774928e-07
-3.33125223092e-07
0.000889003097238
-2.71442441168e-07
-3.32128484961e-07
0.000889016676556
-3.3322870771e-07
-3.32559276023e-07
0.000889048103205
-4.27127248395e-07
-3.29795917344e-07
0.000889052849824
-5.26307747581e-07
-3.31950343591e-07
0.000889059053584
-7.03399684205e-07
-3.26464998593e-07
0.000889161973689
-8.7741109903e-07
-3.31261751751e-07
0.000889134470616
-1.23767156214e-06
-3.2314324838e-07
0.000889317203488
-1.31239060035e-06
-3.29939202833e-07
0.00088905919259
-4.39921446396e-07
0.000887652288601
-3.20053757841e-08
-4.27883387804e-07
0.000889002826822
-6.25305838102e-08
-4.27621320516e-07
0.000889005924137
-9.52359459122e-08
-4.27805647441e-07
0.000889005581538
-1.29607740746e-07
-4.27254124311e-07
0.000888999114115
-1.69700944911e-07
-4.2731219559e-07
0.000889031739601
-2.12850244424e-07
-4.26881051975e-07
0.000889008016927
-2.69364608768e-07
-4.2593287317e-07
0.000889021430562
-3.30455018331e-07
-4.26539460104e-07
0.000889052848809
-4.23439696683e-07
-4.22859248459e-07
0.000889057159827
-5.2167186693e-07
-4.25949966746e-07
0.000889063343614
-6.98679839163e-07
-4.1695620707e-07
0.000889165277411
-8.72567514915e-07
-4.24269079388e-07
0.000889138006859
-1.23663798605e-06
-4.08601322072e-07
0.00088932064047
-1.31038230031e-06
-4.30080926763e-07
0.00088907166439
-5.76069781174e-07
0.000887696877753
-3.20693160349e-08
-5.27114325217e-07
0.000889008461884
-6.27130320904e-08
-5.26773899132e-07
0.000889011574593
-9.54634048747e-08
-5.27169535512e-07
0.000889011225946
-1.30027198621e-07
-5.26377186428e-07
0.000889004798635
-1.70196557896e-07
-5.26778017918e-07
0.000889037413373
-2.13768747144e-07
-5.26025894422e-07
0.000889013828835
-2.70604833321e-07
-5.25216762018e-07
0.000889027231787
-3.32616690612e-07
-5.2581470747e-07
0.000889059065321
-4.26536890473e-07
-5.21182600513e-07
0.000889063355371
-5.26235215512e-07
-5.2574137668e-07
0.000889070601559
-7.05479524906e-07
-5.12451896424e-07
0.000889172518232
-8.80325472358e-07
-5.25410951882e-07
0.000889147099682
-1.24827643577e-06
-4.97052407871e-07
0.000889327513981
-1.31937031009e-06
-5.29127292445e-07
0.000889067918601
-6.80617515473e-07
0.000887656289149
-3.18520617274e-08
-7.03230975333e-07
0.00088911182145
-6.2332442899e-08
-7.02784243785e-07
0.000889114935742
-9.47564285891e-08
-7.0354680004e-07
0.000889114579578
-1.29082073517e-07
-7.02417136422e-07
0.000889108143779
-1.68565988624e-07
-7.03543351497e-07
0.000889140694646
-2.11548505168e-07
-7.02344421304e-07
0.000889117079252
-2.6676870666e-07
-7.02405846352e-07
0.000889130187502
-3.27124270477e-07
-7.03000142595e-07
0.00088916198642
-4.17538458956e-07
-6.98280077383e-07
0.00088916528989
-5.12943608926e-07
-7.05077653243e-07
0.000889172519656
-6.86481165962e-07
-6.86077567239e-07
0.000889271608672
-8.52820348879e-07
-7.08040564985e-07
0.000889246747068
-1.22004624463e-06
-6.56757855531e-07
0.000889424709686
-1.26675536995e-06
-7.46500472305e-07
0.000889188527867
-8.93532433328e-07
0.000887843937669
-3.19445641888e-08
-8.77516140476e-07
0.000889083423662
-6.25903833959e-08
-8.76902407323e-07
0.000889086542305
-9.51214381e-08
-8.7812516931e-07
0.000889086221129
-1.29797841485e-07
-8.76436470439e-07
0.000889079807539
-1.69505527946e-07
-8.78488189998e-07
0.00088911243074
-2.13347621646e-07
-8.76331264108e-07
0.000889088940762
-2.69324621927e-07
-8.77472245688e-07
0.000889102155232
-3.3192417591e-07
-8.77111144959e-07
0.000889134488795
-4.24853264923e-07
-8.72263987709e-07
0.000889138024844
-5.25903346717e-07
-8.80022024336e-07
0.000889147106306
-7.08443481766e-07
-8.52511511335e-07
0.000889246752345
-8.8631774139e-07
-8.86011089051e-07
0.000889226956678
-1.2892628734e-06
-7.84404599371e-07
0.000889401703826
-1.35527825791e-06
-9.29495630805e-07
0.000889146788905
-1.10210121561e-06
0.000887724402242
-3.18514657137e-08
-1.23579774539e-06
0.000889267343085
-6.23803344635e-08
-1.23499196266e-06
0.000889270396793
-9.47442314516e-08
-1.23685188834e-06
0.000889270202375
-1.29102313173e-07
-1.23452085708e-06
0.000889263554327
-1.68199728474e-07
-1.23806232775e-06
0.000889296449828
-2.11021460478e-07
-1.23482620251e-06
0.000889272428556
-2.64715686241e-07
-1.23865453279e-06
0.000889285988407
-3.23799392082e-07
-1.23746833011e-06
0.000889317219193
-4.0918150648e-07
-1.23642655198e-06
0.000889320656586
-4.97542091867e-07
-1.24806808517e-06
0.000889327518562
-6.5715958776e-07
-1.21982893794e-06
0.000889424713253
-7.84712046837e-07
-1.2890481758e-06
0.00088940170149
-1.13744552966e-06
-1.13722695517e-06
0.000889576667826
-1.02407559949e-06
-1.52994078975e-06
0.000889384853587
-1.33818584608e-06
0.000888083120736
-3.19919432688e-08
-1.31256126352e-06
0.000889012649955
-6.22110972336e-08
-1.31167958016e-06
0.00088901535187
-9.53762573688e-08
-1.31373642155e-06
0.000889015828109
-1.29045972376e-07
-1.3110607278e-06
0.000889007987863
-1.70106913853e-07
-1.31516072146e-06
0.000889042604829
-2.12154886488e-07
-1.31094234815e-06
0.000889015942424
-2.70641775029e-07
-1.31581669883e-06
0.00088903342737
-3.30589196969e-07
-1.31227616391e-06
0.000889059200779
-4.3065526025e-07
-1.31025985023e-06
0.000889071677689
-5.29609752973e-07
-1.31925332892e-06
0.000889067918075
-7.46891995782e-07
-1.26663101132e-06
0.00088918852986
-9.29787095015e-07
-1.35515804405e-06
0.000889146783317
-1.5301363885e-06
-1.02395018877e-06
0.00088938485088
-1.64526415191e-06
-1.64515498331e-06
0.000889154787501
-1.94338515127e-06
0.000887857713256
-4.43733684565e-08
0.000887608487399
-8.47089059308e-08
0.000887610434146
-1.32688353212e-07
0.0008876133546
-1.75442748599e-07
0.000887602805336
-2.3658215655e-07
0.000887643756764
-2.86844942526e-07
0.000887610432124
-3.73947467242e-07
0.000887642397517
-4.40748209843e-07
0.000887652302677
-5.76798960867e-07
0.000887696902601
-6.81231890611e-07
0.000887656291309
-8.94030350666e-07
0.000887843945557
-1.10247341602e-06
0.000887724396731
-1.33843012877e-06
0.000888083118226
-1.94351372142e-06
0.000887857706711
0.000884984212576
-4.1631356777e-08
-4.01278902258e-08
0.000889025501068
-8.07079082751e-08
-4.00939731955e-08
0.000889028815076
-1.21380815133e-07
-4.00674239057e-08
0.000889030091209
-1.63320827474e-07
-4.00065669043e-08
0.000889024719106
-2.08740211457e-07
-3.99382620617e-08
0.000889060867785
-2.56686923206e-07
-3.98657010647e-08
0.000889039420543
-3.10417218773e-07
-3.97484205715e-08
0.00088905879282
-3.6869716206e-07
-3.96860124061e-08
0.000889094377568
-4.34786155471e-07
-3.95217266592e-08
0.000889107026411
-5.08707937262e-07
-3.94079657161e-08
0.000889120387956
-5.86402009905e-07
-3.93339974226e-08
0.000889227457548
-6.70824522116e-07
-3.92472487676e-08
0.000889205712781
-6.94740263893e-07
-3.92674376539e-08
0.000889329153371
-7.20978996413e-07
-3.97291061926e-08
0.000889077247066
-4.08830225961e-08
0.000886926954573
-4.16202019781e-08
-7.9281138168e-08
0.000889028997529
-8.06781445516e-08
-7.92143344684e-08
0.00088903231164
-1.21331396226e-07
-7.91645248911e-08
0.000889033591424
-1.63251395102e-07
-7.90514385819e-08
0.000889028225232
-2.0864721058e-07
-7.89282396202e-08
0.000889064380226
-2.56566775304e-07
-7.88016938093e-08
0.000889042944217
-3.10262941643e-07
-7.85882027591e-08
0.000889062322859
-3.68495487317e-07
-7.84957978809e-08
0.000889097923298
-4.34523144439e-07
-7.81922468692e-08
0.000889110571825
-5.0834767874e-07
-7.80214068855e-08
0.000889123946449
-5.85915937715e-07
-7.79027774431e-08
0.000889231008141
-6.70163362125e-07
-7.77827603305e-08
0.000889209255148
-6.93904109692e-07
-7.77900469484e-08
0.000889332594085
-7.20199035699e-07
-7.82503124479e-08
0.000889080119238
-7.94523364642e-08
0.000886928736241
-4.15679391421e-08
-1.20005938422e-07
0.000889030190282
-8.05995144763e-08
-1.19907971312e-07
0.000889033520613
-1.2122507665e-07
-1.1983386878e-07
0.000889034793278
-1.63132008379e-07
-1.19663753804e-07
0.000889029443575
-2.08520978715e-07
-1.19477832039e-07
0.000889065589753
-2.56457604264e-07
-1.19282925986e-07
0.000889044168904
-3.10200713643e-07
-1.18942567553e-07
0.000889063536024
-3.68521115197e-07
-1.18790948388e-07
0.00088909915227
-4.34711608439e-07
-1.18269317421e-07
0.000889111781534
-5.08758504302e-07
-1.18004947734e-07
0.000889125178269
-5.86692506748e-07
-1.17697595324e-07
0.000889232233024
-6.71370628055e-07
-1.17493061221e-07
0.000889210531357
-6.95664683107e-07
-1.17458304015e-07
0.000889334089544
-7.22140834257e-07
-1.18787787381e-07
0.00088908277201
-1.22113605849e-07
0.000886933771153
-4.15159974398e-08
-1.62048702516e-07
0.000889024944261
-8.05080916434e-08
-1.61922179522e-07
0.000889028292109
-1.21086214213e-07
-1.61835115197e-07
0.000889029565794
-1.62950730117e-07
-1.61614244803e-07
0.000889024245774
-2.08280654274e-07
-1.6138760407e-07
0.000889060397731
-2.56152848718e-07
-1.61144758536e-07
0.000889039018045
-3.09804658403e-07
-1.60708316296e-07
0.00088905839126
-3.67996444037e-07
-1.60552458089e-07
0.000889094060059
-4.34007156198e-07
-1.59854489767e-07
0.00088910667988
-5.07774139724e-07
-1.59642284847e-07
0.000889120157816
-5.85347310851e-07
-1.59175139919e-07
0.000889227149629
-6.69481139772e-07
-1.59037014678e-07
0.000889205434899
-6.93234806327e-07
-1.58836047589e-07
0.000889328638643
-7.19798590412e-07
-1.59662424884e-07
0.000889075393138
-1.617928709e-07
0.000886922638302
-4.14197778852e-08
-2.07554166817e-07
0.000889061037438
-8.0355346185e-08
-2.07398016137e-07
0.000889064403233
-1.20868911225e-07
-2.07304560978e-07
0.00088906566741
-1.62693787154e-07
-2.07018963361e-07
0.000889060365576
-2.07982589444e-07
-2.06750351532e-07
0.000889096499382
-2.55855487376e-07
-2.06427958431e-07
0.000889075135331
-3.09548399358e-07
-2.05849745317e-07
0.000889094472421
-3.67851710599e-07
-2.05631358223e-07
0.000889130157633
-4.34115552634e-07
-2.04603731685e-07
0.000889142712808
-5.08286246237e-07
-2.04375726939e-07
0.000889156265998
-5.86595521783e-07
-2.03369209291e-07
0.000889263147547
-6.71582265709e-07
-2.03193101453e-07
0.000889241519125
-6.96578113551e-07
-2.02633558455e-07
0.000889365191113
-7.23747906292e-07
-2.04687520875e-07
0.000889114751798
-2.09689808427e-07
0.00088696783191
-4.13445734793e-08
-2.55616898178e-07
0.000889039665025
-8.02364278879e-08
-2.5543196362e-07
0.000889043059148
-1.20688783346e-07
-2.55352930849e-07
0.000889044323479
-1.62473045942e-07
-2.55000337432e-07
0.000889039070096
-2.07687168329e-07
-2.54729213589e-07
0.000889075208499
-2.55495682845e-07
-2.54339407668e-07
0.000889053918317
-3.0907445196e-07
-2.53669711775e-07
0.000889073257016
-3.67214916011e-07
-2.53460440767e-07
0.000889109051651
-4.33238773244e-07
-2.52163575454e-07
0.000889121588124
-5.06997642313e-07
-2.52151686444e-07
0.000889135337247
-5.84796148383e-07
-2.50621930082e-07
0.000889242103535
-6.68859973754e-07
-2.50745079945e-07
0.000889220524084
-6.92970378492e-07
-2.49553149128e-07
0.00088934342885
-7.19997406832e-07
-2.50645304182e-07
0.000889088908145
-2.52920851376e-07
0.000886933636587
-4.11999532717e-08
-3.09453220191e-07
0.000889059003661
-7.99949947489e-08
-3.09234511136e-07
0.000889062414061
-1.20319753727e-07
-3.09200026523e-07
0.000889063665686
-1.62009559309e-07
-3.0875558408e-07
0.000889058427801
-2.07083490928e-07
-3.08522468537e-07
0.000889094529655
-2.54803803546e-07
-3.08017282032e-07
0.000889073248775
-3.08286224991e-07
-3.07247908351e-07
0.000889092493331
-3.66405971003e-07
-3.06970020375e-07
0.000889128286147
-4.32584453637e-07
-3.05202708355e-07
0.000889140631317
-5.0669237997e-07
-3.05278009826e-07
0.000889154437211
-5.85452470035e-07
-3.02558291172e-07
0.000889260855121
-6.7066039865e-07
-3.02782322995e-07
0.000889239366776
-6.96991239642e-07
-3.00217266398e-07
0.000889362951737
-7.25623580519e-07
-3.02823898554e-07
0.000889114209884
-3.07442008843e-07
0.000886971248293
-4.11276603665e-08
-3.67853475579e-07
0.000889094626037
-7.99002338016e-08
-3.67592205144e-07
0.000889098069218
-1.20170611253e-07
-3.67640750225e-07
0.000889099324378
-1.61861956665e-07
-3.67070856249e-07
0.00088909414887
-2.06877141609e-07
-3.66944509925e-07
0.000889130258616
-2.54609461841e-07
-3.66277961404e-07
0.000889109090916
-3.08024769608e-07
-3.65483458505e-07
0.000889128328108
-3.6608510347e-07
-3.65146522467e-07
0.000889164340743
-4.32120654265e-07
-3.6295643286e-07
0.000889176639804
-5.05833284244e-07
-3.63354627913e-07
0.000889190843538
-5.8418638591e-07
-3.59378467914e-07
0.000889297147686
-6.68187696652e-07
-3.60338840775e-07
0.000889276029186
-6.93582528388e-07
-3.5572700527e-07
0.00088939810888
-7.21334152134e-07
-3.57302014417e-07
0.000889141423185
-3.57330322794e-07
0.000886980843343
-4.0938780583e-08
-4.34057472093e-07
0.000889107256394
-7.95720612746e-08
-4.33741439591e-07
0.000889110707263
-1.19624273903e-07
-4.33947881891e-07
0.000889111941517
-1.61140909128e-07
-4.33202932716e-07
0.000889106763477
-2.05828298145e-07
-4.33324659e-07
0.000889142807807
-2.53294366657e-07
-4.3242093939e-07
0.000889121626659
-3.06242470024e-07
-4.31776387947e-07
0.000889140672293
-3.63883842791e-07
-4.31297932313e-07
0.000889176642296
-4.29480741572e-07
-4.2866494085e-07
0.000889188465941
-5.02825625919e-07
-4.29331935779e-07
0.000889202666515
-5.81622630402e-07
-4.23224224995e-07
0.000889307920895
-6.6597450626e-07
-4.24880249995e-07
0.000889286900893
-6.95035293562e-07
-4.15909534964e-07
0.000889409884618
-7.26670138533e-07
-4.18637849511e-07
0.000889164635933
-4.15624611885e-07
0.000887028502489
-4.08090929482e-08
-5.08098595245e-07
0.000889120632836
-7.93903135173e-08
-5.07695637591e-07
0.000889124110631
-1.19352238566e-07
-5.08117298064e-07
0.000889125357932
-1.60925549584e-07
-5.07100492122e-07
0.000889120270163
-2.0560048515e-07
-5.07619820598e-07
0.000889156384144
-2.53285530173e-07
-5.06310145065e-07
0.000889135403774
-3.06322600329e-07
-5.06009533895e-07
0.000889154502702
-3.64287250869e-07
-5.05139405467e-07
0.000889190872149
-4.30152547163e-07
-5.02134172729e-07
0.000889202690606
-5.03575993458e-07
-5.02881687969e-07
0.000889217575467
-5.82667229634e-07
-4.9451699384e-07
0.000889322902968
-6.66479526046e-07
-4.97304541375e-07
0.000889303337025
-6.96080931612e-07
-4.81782241866e-07
0.000889422988931
-7.24830539952e-07
-4.85642636301e-07
0.000889163673867
-4.75878954793e-07
0.00088699171354
-4.07196586621e-08
-5.8590894187e-07
0.000889227693646
-7.92562971781e-08
-5.85392121357e-07
0.00088923116949
-1.19029855864e-07
-5.86171984186e-07
0.000889232408477
-1.6044436464e-07
-5.84804015054e-07
0.000889227262481
-2.04581124235e-07
-5.8605288154e-07
0.000889263265151
-2.5174437471e-07
-5.84239583626e-07
0.000889242172637
-3.03593600637e-07
-5.84894867189e-07
0.000889260922767
-3.60303958772e-07
-5.83622349046e-07
0.000889297180433
-4.24040949875e-07
-5.81055672386e-07
0.000889307949097
-4.95210688551e-07
-5.82099677084e-07
0.00088932290811
-5.71995824503e-07
-5.7142524497e-07
0.000889425302801
-6.52614134054e-07
-5.75911120528e-07
0.000889405972727
-6.8650928678e-07
-5.49161425345e-07
0.000889525984871
-7.21197563378e-07
-5.55274716589e-07
0.000889292849098
-5.18457775035e-07
0.000887165319516
-4.06201328337e-08
-6.70448939517e-07
0.00088920595249
-7.91259323675e-08
-6.69771798837e-07
0.000889209428422
-1.18816716638e-07
-6.70973437212e-07
0.000889210714032
-1.60299718917e-07
-6.69073420101e-07
0.00088920556063
-2.04400298727e-07
-6.7116761714e-07
0.000889241646754
-2.51864141236e-07
-6.68440612474e-07
0.000889220606344
-3.03815307121e-07
-6.70233843977e-07
0.000889239446096
-3.61262412634e-07
-6.67760698685e-07
0.000889276074978
-4.25695890327e-07
-6.65538357936e-07
0.000889286941743
-4.97996103899e-07
-6.66047356566e-07
0.000889303354942
-5.76479209506e-07
-6.52174429899e-07
0.0008894059854
-6.58627318782e-07
-6.58190199993e-07
0.000889391384655
-7.00106161881e-07
-6.14533088351e-07
0.000889508555188
-7.33151069475e-07
-6.32154706457e-07
0.000889256714671
-5.92138403351e-07
0.000887064932386
-4.06346397433e-08
-6.94485564176e-07
0.000889329393089
-7.91271605603e-08
-6.9364806685e-07
0.000889332766286
-1.18776861567e-07
-6.95394350361e-07
0.000889334273721
-1.60093899749e-07
-6.92965991253e-07
0.000889328764688
-2.03837301101e-07
-6.96295020981e-07
0.0008893653214
-2.50669462261e-07
-6.92691606167e-07
0.000889343512492
-3.01249133795e-07
-6.96699333189e-07
0.00088936303436
-3.566508356e-07
-6.93295910389e-07
0.000889398156907
-4.16726636816e-07
-6.94735453104e-07
0.000889409930292
-4.82476256044e-07
-6.95787697292e-07
0.000889423009341
-5.49733752222e-07
-6.86203584685e-07
0.000889526000739
-6.14976446951e-07
-6.9980239142e-07
0.000889508557224
-6.47194390674e-07
-6.46879504668e-07
0.000889641233077
-6.67559308217e-07
-6.91250541712e-07
0.000889464315204
-5.21671702099e-07
0.000887345095306
-4.11213739736e-08
-7.20862884349e-07
0.000889077501471
-7.9610949332e-08
-7.20087896818e-07
0.000889080281997
-1.2013216343e-07
-7.22013952278e-07
0.000889082969682
-1.60944456946e-07
-7.19677351275e-07
0.000889075512293
-2.05916187872e-07
-7.23611521218e-07
0.000889114893853
-2.51784495048e-07
-7.19867486066e-07
0.000889088987418
-3.0387771455e-07
-7.25480164033e-07
0.000889114302239
-3.58243936179e-07
-7.21196876988e-07
0.000889141468796
-4.19467870817e-07
-7.26520888282e-07
0.000889164687895
-4.86343458809e-07
-7.24686886786e-07
0.000889163693699
-5.55844558902e-07
-7.21042837989e-07
0.000889292871068
-6.32582302098e-07
-7.32998672181e-07
0.000889256718197
-6.91534368793e-07
-6.67395764286e-07
0.000889464320065
-7.36271168102e-07
-7.3612795813e-07
0.000889244402544
-5.52583438764e-07
0.000887152354388
-4.23029146906e-08
0.000886927232049
-8.08372908959e-08
0.000886928881118
-1.23484733759e-07
0.000886933988605
-1.63099022454e-07
0.0008869227428
-2.10942855973e-07
0.000886967989613
-2.54082298282e-07
0.000886933704625
-3.0851657544e-07
0.000886971352184
-3.58291107849e-07
0.000886980880893
-4.16470849902e-07
0.000887028562022
-4.76593816403e-07
0.00088699172796
-5.19036729376e-07
0.00088716534621
-5.92570795096e-07
0.000887064932702
-5.2194939249e-07
0.000887345101635
-5.52720375652e-07
0.0008871523503
0.000883878909004
-4.31214973661e-08
-4.1539963353e-08
0.000889105330761
-8.31813970163e-08
-4.14572835123e-08
0.00088910870173
-1.24610918164e-07
-4.14488145666e-08
0.000889111338466
-1.66950698638e-07
-4.13307553796e-08
0.000889106771808
-2.11919715181e-07
-4.12659891823e-08
0.000889145496333
-2.58675319615e-07
-4.1137144048e-08
0.000889125725345
-3.08814639218e-07
-4.10157738999e-08
0.00088914837886
-3.61709563284e-07
-4.09056684106e-08
0.000889186629514
-4.15840540644e-07
-4.07358951914e-08
0.00088920036594
-4.74288400359e-07
-4.06517510289e-08
0.000889217978932
-5.19736872831e-07
-4.04687713455e-08
0.000889311884936
-5.74027181586e-07
-4.04371747363e-08
0.000889298961318
-5.66178345291e-07
-4.04749437188e-08
0.000889360308581
-6.23622273531e-07
-4.13965848259e-08
0.000889174595553
-4.21439702175e-08
0.000886343984755
-4.31064765543e-08
-8.17413229255e-08
0.00088910909386
-8.31365603729e-08
-8.15889698718e-08
0.000889112473765
-1.2453444318e-07
-8.15728266139e-08
0.000889115113701
-1.6684677461e-07
-8.13601689878e-08
0.000889110567388
-2.11785147974e-07
-8.12504004204e-08
0.000889149303455
-2.58510215943e-07
-8.10256719305e-08
0.000889129558296
-3.0861126362e-07
-8.08154940932e-08
0.000889152224145
-3.61455326031e-07
-8.06391302597e-08
0.000889190501372
-4.1552224563e-07
-8.03391500567e-08
0.000889204242567
-4.73870108132e-07
-8.02315157495e-08
0.000889221874661
-5.19192806284e-07
-7.99057967935e-08
0.000889315768456
-5.73308525837e-07
-7.98953483181e-08
0.000889302829657
-5.65275154439e-07
-7.99535789978e-08
0.000889364040016
-6.22795955088e-07
-8.13629865821e-08
0.000889177607128
-8.18268941649e-08
0.000886345623669
-4.30330749841e-08
-1.23224839288e-07
0.000889111528905
-8.30379377293e-08
-1.23006995898e-07
0.000889114943883
-1.24406048047e-07
-1.22980873424e-07
0.000889117569846
-1.66708982289e-07
-1.2267019836e-07
0.000889113056978
-2.11642461514e-07
-1.22507068092e-07
0.000889151780372
-2.58390771688e-07
-1.22173213907e-07
0.000889132065266
-3.08541475028e-07
-1.21845339535e-07
0.000889154717115
-3.61475368105e-07
-1.21576664729e-07
0.000889193024268
-4.15708224377e-07
-1.21074196514e-07
0.000889206750025
-4.74272915279e-07
-1.20905797155e-07
0.000889224417845
-5.19963627992e-07
-1.20298117121e-07
0.00088931831667
-5.74516663298e-07
-1.20268543429e-07
0.000889305458222
-5.67009152402e-07
-1.20334668647e-07
0.000889366963811
-6.24446319767e-07
-1.23259198394e-07
0.0008891821061
-1.25572731506e-07
0.000886353071147
-4.29434992663e-08
-1.65702432151e-07
0.000889107196961
-8.2887898452e-08
-1.65442280301e-07
0.000889110672198
-1.24181200932e-07
-1.65409838784e-07
0.000889113288498
-1.66429998071e-07
-1.65029158735e-07
0.000889108853997
-2.11289833239e-07
-1.64834814799e-07
0.00088914758581
-2.57969550698e-07
-1.64429114654e-07
0.000889127954195
-3.08019726879e-07
-1.64020143512e-07
0.000889150616802
-3.60819745754e-07
-1.63721131219e-07
0.00088918900513
-4.14868647545e-07
-1.63067360741e-07
0.000889202722547
-4.7312254639e-07
-1.62947322984e-07
0.000889220453856
-5.18431561721e-07
-1.62135549202e-07
0.000889314296701
-5.72433763823e-07
-1.62228996155e-07
0.000889301398201
-5.64343571745e-07
-1.62231616425e-07
0.000889362446102
-6.21944901055e-07
-1.6546586233e-07
0.000889175201856
-1.6649966088e-07
0.000886341620816
-4.28257424399e-08
-2.10767956208e-07
0.000889145804735
-8.27152750363e-08
-2.1046362099e-07
0.000889149314543
-1.23943320245e-07
-2.1043176239e-07
0.000889151917846
-1.66160035297e-07
-2.09965417937e-07
0.000889147519045
-2.10985973694e-07
-2.0973960639e-07
0.000889186230638
-2.57683340857e-07
-2.09228135691e-07
0.000889166632277
-3.07788106506e-07
-2.08697722363e-07
0.000889189255351
-3.60726000881e-07
-2.08306228537e-07
0.00088922768123
-4.15049502139e-07
-2.07364491779e-07
0.000889241334058
-4.73664126716e-07
-2.07179949123e-07
0.000889259113875
-5.19697681427e-07
-2.05870496905e-07
0.000889352916688
-5.74590357652e-07
-2.05986419672e-07
0.000889340169885
-5.67648680432e-07
-2.05818416697e-07
0.000889401836952
-6.25183108145e-07
-2.11411999324e-07
0.000889218233101
-2.15376661261e-07
0.000886391526296
-4.26973409245e-08
-2.57651409815e-07
0.000889126150284
-8.2516779267e-08
-2.57321571262e-07
0.00088912973701
-1.23649217981e-07
-2.57305320523e-07
0.000889132329978
-1.65808435334e-07
-2.56770438365e-07
0.000889128034862
-2.10537812684e-07
-2.56556362583e-07
0.000889166755189
-2.57159200172e-07
-2.55965734627e-07
0.000889147277888
-3.07128318158e-07
-2.55378214474e-07
0.000889169907235
-3.59890493752e-07
-2.54960474648e-07
0.000889208468699
-4.13945333794e-07
-2.5381434682e-07
0.000889222093455
-4.72072601805e-07
-2.53722630779e-07
0.00088924000784
-5.17499336084e-07
-2.52042969286e-07
0.000889333703394
-5.71428702214e-07
-2.52469908349e-07
0.000889320937613
-5.63494208579e-07
-2.52018525113e-07
0.000889381695196
-6.21101916206e-07
-2.58178781954e-07
0.000889193283388
-2.59996147633e-07
0.000886357154662
-4.25339879016e-08
-3.07904202058e-07
0.000889148743618
-8.22603152757e-08
-3.07540613125e-07
0.000889152359939
-1.23268644603e-07
-3.07568199745e-07
0.00088915493743
-1.65347467535e-07
-3.06933455919e-07
0.000889150670199
-2.09955049817e-07