/*--------------------------------*- C++ -*----------------------------------*\
| =========                 |                                                 |
| \\      /  F ield         | OpenFOAM: The Open Source CFD Toolbox           |
|  \\    /   O peration     | Version:  2406                                  |
|   \\  /    A nd           | Website:  www.openfoam.com                      |
|    \\/     M anipulation  |                                                 |
\*---------------------------------------------------------------------------*/
FoamFile
{
    version     2.0;
    format      ascii;
    arch        "LSB;label=32;scalar=64";
    class       surfaceScalarField;
    location    "0.01";
    object      phiHbyA;
}
// * * * * * * * * * * * * * * * * * * * * * * * * * * * * * * * * * * * * * //

dimensions      [0 3 -1 0 0 0 0];

oriented        oriented;

internalField   nonuniform List<scalar> 
86897
(
-3.25032668258e-08
-3.14529464029e-08
0.000888947703555
-6.28685509999e-08
-3.14234602358e-08
0.000888950725997
-9.66175238062e-08
-3.1405481047e-08
0.000888950404637
-1.30168990547e-07
-3.13594470885e-08
0.000888943829207
-1.72268789934e-07
-3.13045196251e-08
0.000888976480709
-2.13643071837e-07
-3.12563729731e-08
0.000888952607021
-2.7368992468e-07
-3.11574565231e-08
0.000888966106312
-3.31234481069e-07
-3.11281981954e-08
0.000888997321199
-4.30202967914e-07
-3.10025834219e-08
0.000889001826443
-5.20785212413e-07
-3.10720760421e-08
0.000889007860852
-7.08106334784e-07
-3.08751428119e-08
0.000889109958364
-8.63971232453e-07
-3.09741171534e-08
0.000889082814184
-1.24500233522e-06
-3.09002752454e-08
0.000889263276412
-1.283182045e-06
-3.1056914169e-08
0.000889011541957
-4.31789949644e-08
0.000887597611004
-3.24964239602e-08
-6.18608157425e-08
0.000888950822654
-6.28494711176e-08
-6.18055234038e-08
0.000888953846727
-9.6583647156e-08
-6.1771899718e-08
0.000888953525441
-1.30121899429e-07
-6.16897702709e-08
0.000888946954542
-1.72203237135e-07
-6.15899426677e-08
0.000888979607654
-2.13557734372e-07
-6.15126935491e-08
0.000888955741095
-2.73575983457e-07
-6.13298693382e-08
0.000888969242475
-3.31080238413e-07
-6.13043878967e-08
0.00088900046684
-4.2999111152e-07
-6.10715330816e-08
0.000889004972446
-5.20488306188e-07
-6.12522415061e-08
0.000889011015174
-7.07689834001e-07
-6.08814356981e-08
0.000889113111515
-8.63381600486e-07
-6.11332010054e-08
0.000889085967352
-1.24420366445e-06
-6.09113375652e-08
0.000889266365157
-1.28229807481e-06
-6.07351872174e-08
0.000889014289606
-8.29628164983e-08
0.000887599626389
-3.24557481167e-08
-9.56586022944e-08
0.000888950447351
-6.2786696648e-08
-9.55768622005e-08
0.000888953478498
-9.64976597087e-08
-9.55253735697e-08
0.000888953152479
-1.30023407016e-07
-9.54001698089e-08
0.000888946588259
-1.72096336186e-07
-9.52446908344e-08
0.000888979234266
-2.13461568604e-07
-9.51231158632e-08
0.000888955373344
-2.7351730764e-07
-9.48194948874e-08
0.000888968864154
-3.31090380868e-07
-9.47707370557e-08
0.000889000092642
-4.30149947192e-07
-9.43442497878e-08
0.000889004582802
-5.20861881699e-07
-9.45698190301e-08
0.000889010624724
-7.08436245089e-07
-9.38929755662e-08
0.000889112715919
-8.64585673542e-07
-9.42624459682e-08
0.00088908560873
-1.24606075637e-06
-9.39239500068e-08
0.000889266131952
-1.28435703237e-06
-9.4580805828e-08
0.0008890147138
-1.31652316452e-07
0.000887602479904
-3.2420782637e-08
-1.29270226546e-07
0.000888943937019
-6.27266356499e-08
-1.29167833675e-07
0.000888946979752
-9.64040857871e-08
-1.29106382937e-07
0.000888946651217
-1.29905161501e-07
-1.2894997893e-07
0.00088894010546
-1.71935834162e-07
-1.28755927259e-07
0.000888972751759
-2.13260726366e-07
-1.28621875044e-07
0.000888948916828
-2.73248070857e-07
-1.28220096516e-07
0.000888962409706
-3.30720088198e-07
-1.28229388525e-07
0.000888993672638
-4.29635103261e-07
-1.27632022397e-07
0.000888998162419
-5.20112638949e-07
-1.28043091306e-07
0.000889004239012
-7.07330515754e-07
-1.27111399459e-07
0.000889106320902
-8.6293563559e-07
-1.27815487436e-07
0.000889079231654
-1.24374300982e-06
-1.2709485169e-07
0.000889259521928
-1.28168495612e-06
-1.27018460273e-07
0.000889006919767
-1.73146774571e-07
0.000887591997958
-3.23444406588e-08
-1.71440218274e-07
0.000888976553346
-6.26013000024e-08
-1.71314090278e-07
0.000888979603959
-9.62198384323e-08
-1.71245246334e-07
0.000888979267429
-1.29681082123e-07
-1.71041444279e-07
0.000888972728947
-1.71663072823e-07
-1.70798720411e-07
0.000889005360123
-2.1297401781e-07
-1.70619562588e-07
0.000888981530647
-2.72977796194e-07
-1.70050482963e-07
0.000888994993432
-3.30522781955e-07
-1.70062743123e-07
0.000889026260585
-4.29672109986e-07
-1.69074998293e-07
0.000889030698804
-5.2050105707e-07
-1.69550519764e-07
0.000889036767211
-7.08442055101e-07
-1.67954042772e-07
0.000889138789589
-8.64958948461e-07
-1.68879869325e-07
0.000889111773737
-1.24727634614e-06
-1.67626013757e-07
0.0008892923357
-1.28577685834e-06
-1.69548177178e-07
0.000889041443877
-2.35813574095e-07
0.000887632844836
-3.22977893173e-08
-2.12885548832e-07
0.000888952717796
-6.25336192822e-08
-2.12738872952e-07
0.000888955785376
-9.61149257364e-08
-2.12679434451e-07
0.000888955445511
-1.29568933231e-07
-2.12434012696e-07
0.000888948937081
-1.71510294655e-07
-2.12175835162e-07
0.000888981567359
-2.12815589703e-07
-2.11989483228e-07
0.000888957788676
-2.72761392579e-07
-2.11296474711e-07
0.000888971252557
-3.30240381692e-07
-2.1145617899e-07
0.000889002604447
-4.29250494178e-07
-2.10115055999e-07
0.00088900704097
-5.19788532334e-07
-2.11026747527e-07
0.000889013241482
-7.0724395874e-07
-2.08843875294e-07
0.000889115232511
-8.62849865623e-07
-2.1063843483e-07
0.000889088335524
-1.24404101979e-06
-2.08305332232e-07
0.000889268368353
-1.28156894759e-06
-2.09429560385e-07
0.000889014836721
-2.83866787375e-07
0.000887599593948
-3.21797667946e-08
-2.73013993564e-07
0.000888966196105
-6.23294215784e-08
-2.72840036337e-07
0.000888969271115
-9.57882529583e-08
-2.72815195812e-07
0.000888968919298
-1.29143778888e-07
-2.72501423169e-07
0.000888962418087
-1.70918489431e-07
-2.72256857596e-07
0.000888995017737
-2.12101370713e-07
-2.7201170789e-07
0.000888971244458
-2.71870593894e-07
-2.71139513175e-07
0.000888984632703
-3.29249693041e-07
-2.71358671941e-07
0.00088901598493
-4.2829083438e-07
-2.69303164126e-07
0.000889020260689
-5.18998822511e-07
-2.70486237269e-07
0.000889026452426
-7.07302638198e-07
-2.66678944003e-07
0.000889128157468
-8.6398545465e-07
-2.6915736871e-07
0.000889101368828
-1.24788015471e-06
-2.64593826025e-07
0.00088928175286
-1.28643099588e-06
-2.70457846768e-07
0.00088903214355
-3.73593935512e-07
0.000887631374803
-3.21460418091e-08
-3.30635770122e-07
0.000888997430436
-6.23048738111e-08
-3.30426541133e-07
0.0008890005243
-9.57452255438e-08
-3.30466022782e-07
0.000889000169318
-1.29162645821e-07
-3.30054700843e-07
0.000888993707797
-1.70943851173e-07
-3.2987927715e-07
0.000889026306696
-2.12275698913e-07
-3.29570273485e-07
0.000889002620105
-2.72105592244e-07
-3.28595132509e-07
0.000889016005529
-3.29704898253e-07
-3.29035569931e-07
0.000889047555877
-4.28861283559e-07
-3.26330188165e-07
0.000889051821356
-5.19626047141e-07
-3.28494358805e-07
0.000889058417814
-7.078293835e-07
-3.2312149092e-07
0.000889160086385
-8.6366143082e-07
-3.2793759686e-07
0.000889133814067
-1.24661484456e-06
-3.19939555174e-07
0.000889313095185
-1.28290404639e-06
-3.26810094683e-07
0.000889058004965
-4.36774026159e-07
0.000887641382433
-3.20049015521e-08
-4.29690245077e-07
0.00088900192422
-6.20554637485e-08
-4.29430231469e-07
0.000889005022751
-9.53015898394e-08
-4.29612456018e-07
0.00088900465076
-1.28548389639e-07
-4.29061409997e-07
0.000888998192584
-1.69940118218e-07
-4.29115370533e-07
0.000889030739162
-2.10919850669e-07
-4.28670135429e-07
0.000889007053754
-2.70037492835e-07
-4.27721912896e-07
0.00088902027815
-3.26989185791e-07
-4.28279057843e-07
0.000889051820132
-4.25183424345e-07
-4.24608343141e-07
0.000889055661995
-5.15102979417e-07
-4.27573701448e-07
0.000889062238283
-7.03128560753e-07
-4.18589277482e-07
0.000889162946846
-8.58944745332e-07
-4.25656927417e-07
0.0008891369069
-1.24568364075e-06
-4.09960606073e-07
0.000889316127143
-1.28090554964e-06
-4.31061121821e-07
0.000889070107477
-5.77061540561e-07
0.000887685617604
-3.20708584127e-08
-5.20353111406e-07
0.000889007967214
-6.22358285386e-08
-5.20017808381e-07
0.000889011081317
-9.55294538671e-08
-5.20407788734e-07
0.000889010703356
-1.28963669514e-07
-5.19630113961e-07
0.000889004284395
-1.7042169459e-07
-5.20029785105e-07
0.000889036819319
-2.11838309391e-07
-5.19299069561e-07
0.000889013268313
-2.71228223541e-07
-5.1851615403e-07
0.000889026481927
-3.29160407081e-07
-5.19133538388e-07
0.000889058429424
-4.28155258508e-07
-5.14614277686e-07
0.000889062250077
-5.19675922353e-07
-5.19182685423e-07
0.000889069864908
-7.09683121287e-07
-5.06213562735e-07
0.000889170548502
-8.66672543068e-07
-5.19209276741e-07
0.000889146307533
-1.2569319859e-06
-4.91468794673e-07
0.0008893232873
-1.28989657072e-06
-5.23878585678e-07
0.000889066529
-6.75649949869e-07
0.000887645189711
-3.18588662746e-08
-7.07761653724e-07
0.000889110059882
-6.18497025561e-08
-7.07318010263e-07
0.000889113175987
-9.48374106611e-08
-7.08072549137e-07
0.00088911279155
-1.28017642183e-07
-7.06947103135e-07
0.000889106365828
-1.68812338489e-07
-7.08062849044e-07
0.000889138840422
-2.09644208895e-07
-7.06852613993e-07
0.000889115259725
-2.67411763596e-07
-7.06912464713e-07
0.000889128186812
-3.23780497395e-07
-7.07433228543e-07
0.000889160098852
-4.19166199389e-07
-7.02732161684e-07
0.000889162959227
-5.06704673272e-07
-7.0928460791e-07
0.000889170549803
-6.90721221818e-07
-6.9032103122e-07
0.000889268486493
-8.39797203881e-07
-7.11613191523e-07
0.00088924479478
-1.22908420449e-06
-6.60195332613e-07
0.00088941949069
-1.23760621301e-06
-7.48435381488e-07
0.000889186247455
-8.95156394883e-07
0.000887832077968
-3.19544425877e-08
-8.63708107121e-07
0.000889082917136
-6.20996679939e-08
-8.6310456194e-07
0.00088908603738
-9.52066739881e-08
-8.6430745256e-07
0.00088908568724
-1.28722866845e-07
-8.6264847985e-07
0.000889079282224
-1.69740695569e-07
-8.64668436644e-07
0.000889111828621
-2.1144186298e-07
-8.62555315305e-07
0.000889088368337
-2.69893975437e-07
-8.636861429e-07
0.000889101403004
-3.28599731785e-07
-8.63361994852e-07
0.000889133832002
-4.26235778861e-07
-8.58641831674e-07
0.00088913692478
-5.19701119348e-07
-8.66369631841e-07
0.000889146314042
-7.12012699985e-07
-8.39488985265e-07
0.000889244800049
-8.73150916959e-07
-8.72844777607e-07
0.000889226005974
-1.29677501707e-06
-7.73328907404e-07
0.000889397424885
-1.32580719767e-06
-9.19263791336e-07
0.000889144993456
-1.09421517914e-06
0.000887712888709
-3.18716075654e-08
-1.24482148394e-06
0.0008892633754
-6.18685911542e-08
-1.24402187955e-06
0.000889266431093
-9.48592910723e-08
-1.2458687852e-06
0.000889266207293
-1.27993565572e-07
-1.24355267923e-06
0.000889259569102
-1.68478853491e-07
-1.24707529299e-06
0.000889292388113
-2.09101292104e-07
-1.24384384253e-06
0.000889268398329
-2.65323717789e-07
-1.24767245665e-06
0.00088928178496
-3.20595504467e-07
-1.24641269417e-06
0.000889313110526
-4.10535367101e-07
-1.2454734729e-06
0.000889316143021
-4.91958007285e-07
-1.25672479382e-06
0.00088932329164
-6.60593542539e-07
-1.22886822569e-06
0.000889419494122
-7.73635840805e-07
-1.29656161611e-06
0.000889397422434
-1.14589236479e-06
-1.14567525463e-06
0.000889569636626
-9.97020329785e-07
-1.53447799316e-06
0.000889380538004
-1.34025106937e-06
0.000888069899541
-3.20184372387e-08
-1.28307232013e-06
0.000889011634262
-6.16818625304e-08
-1.28219390161e-06
0.000889014338316
-9.55073877786e-08
-1.28424173749e-06
0.000889014783831
-1.27908388161e-07
-1.28157652821e-06
0.00088900695308
-1.70393430429e-07
-1.28565774945e-06
0.000889041492244
-2.10218334612e-07
-1.28145721507e-06
0.000889014856175
-2.71180934859e-07
-1.28630934463e-06
0.00088903217255
-3.27460077999e-07
-1.28278991633e-06
0.000889058012841
-4.31629877483e-07
-1.28078348862e-06
0.000889070120605
-5.24360740697e-07
-1.28977990287e-06
0.000889066528295
-7.48823321491e-07
-1.23748221922e-06
0.000889186249373
-9.19554904246e-07
-1.32568728673e-06
0.000889144987793
-1.53467212082e-06
-9.96895259106e-07
0.000889380535295
-1.61567683925e-06
-1.61556787414e-06
0.000889151952935
-1.93241964252e-06
0.000887845070501
-4.44034617399e-08
0.000887597745042
-8.41659253835e-08
0.000887599694387
-1.3283088926e-07
0.000887602583931
-1.74277287295e-07
0.000887592045671
-2.36888194656e-07
0.000887632918989
-2.84869196734e-07
0.000887599623302
-3.74513412698e-07
0.000887631421987
-4.37600861735e-07
0.000887641396271
-5.77785017757e-07
0.000887685642357
-6.7626406857e-07
0.000887645191757
-8.95650635844e-07
0.000887832085838
-1.09458706257e-06
0.000887712883177
-1.34049373326e-06
0.000888069897069
-1.93254800852e-06
0.000887845063987
0.000884968288033
-4.16204318182e-08
-4.01315327054e-08
0.000889025515232
-8.03127100502e-08
-4.0097302833e-08
0.000889028841287
-1.21408581896e-07
-4.00710549722e-08
0.000889030115214
-1.62468153867e-07
-4.00099529548e-08
0.000889024763121
-2.0886894309e-07
-3.99422763448e-08
0.000889060915366
-2.55242093678e-07
-3.98695767936e-08
0.000889039497037
-3.10756702852e-07
-3.97535513222e-08
0.000889058878732
-3.66442374965e-07
-3.96912846067e-08
0.000889094503353
-4.35479616514e-07
-3.95295850728e-08
0.000889107164065
-5.05386053135e-07
-3.94168624238e-08
0.000889120577833
-5.87517594735e-07
-3.93469097812e-08
0.000889227647866
-6.66408279038e-07
-3.92636047961e-08
0.000889205980262
-6.95676158255e-07
-3.92930923223e-08
0.000889329346147
-7.17829406055e-07
-3.97609907281e-08
0.000889077560259
-4.09173002351e-08
0.000886927163079
-4.1608964133e-08
-7.88818504098e-08
0.000889029016577
-8.02832465689e-08
-7.88158159523e-08
0.000889032342659
-1.21358918085e-07
-7.87659696293e-08
0.000889033620383
-1.62399347026e-07
-7.86537659732e-08
0.000889028274024
-2.0877580417e-07
-7.85308259501e-08
0.000889064432664
-2.55123196448e-07
-7.84048542029e-08
0.000889043025349
-3.10602568042e-07
-7.81917077963e-08
0.000889062413423
-3.6624327978e-07
-7.80989356484e-08
0.000889098053563
-4.35217659574e-07
-7.77947037739e-08
0.000889110713924
-5.05029740463e-07
-7.76219109566e-08
0.000889124140867
-5.87034970143e-07
-7.74949604786e-08
0.000889231202257
-6.65756353342e-07
-7.73689970049e-08
0.000889209526294
-6.94845960936e-07
-7.73561083462e-08
0.000889332790125
-7.17051631855e-07
-7.78018842527e-08
0.000889080435568
-7.89919063381e-08
0.000886928947618
-4.15574717812e-08
-1.20046279228e-07
0.000889030213324
-8.02045797369e-08
-1.19948356457e-07
0.000889033555199
-1.21253477484e-07
-1.19874529011e-07
0.000889034826142
-1.62280233873e-07
-1.1970442386e-07
0.000889029495988
-2.08650133938e-07
-1.19519611382e-07
0.000889065646147
-2.55014374454e-07
-1.19324502446e-07
0.000889044253892
-3.1053998376e-07
-1.18987066766e-07
0.000889063630747
-3.66268221636e-07
-1.18835330044e-07
0.00088909928694
-4.35404129247e-07
-1.18320394878e-07
0.000889111928256
-5.05432220667e-07
-1.18058445027e-07
0.000889125378581
-5.87805573698e-07
-1.1776139445e-07
0.000889232431454
-6.66944486005e-07
-1.17565060939e-07
0.000889210807536
-6.96596273617e-07
-1.17556889983e-07
0.000889334290199
-7.18984141816e-07
-1.18903737114e-07
0.000889083093837
-1.22236926056e-07
0.000886933987358
-4.15055743903e-08
-1.61193446444e-07
0.000889024982823
-8.01134356843e-08
-1.61067983467e-07
0.000889028341303
-1.21114624984e-07
-1.60981172275e-07
0.000889029613921
-1.62100071332e-07
-1.60761934981e-07
0.000889024312435
-2.08409606713e-07
-1.60536345156e-07
0.000889060468787
-2.54712554741e-07
-1.6029496152e-07
0.000889039116732
-3.10143806547e-07
-1.59860429665e-07
0.00088905849986
-3.65750267948e-07
-1.59704868399e-07
0.000889094207897
-4.34702126474e-07
-1.59007590086e-07
0.000889106839669
-5.04458028619e-07
-1.58793939094e-07
0.000889120371618
-5.86468570711e-07
-1.58316167688e-07
0.000889227359154
-6.65081417117e-07
-1.58169094524e-07
0.000889205721711
-6.94182723227e-07
-1.57932775534e-07
0.000889328848741
-7.16648584224e-07
-1.58732950621e-07
0.000889075723666
-1.60838229486e-07
0.000886922862695
-4.14104171526e-08
-2.07693055728e-07
0.00088906108361
-7.99609288119e-08
-2.07537264896e-07
0.000889064459682
-1.20898948292e-07
-2.07443716136e-07
0.000889065723215
-1.61844179326e-07
-2.07158136561e-07
0.000889060439701
-2.08112981939e-07
-2.06890436064e-07
0.00088909657837
-2.5441706025e-07
-2.06566690426e-07
0.00088907524195
-3.09887880403e-07
-2.05991875687e-07
0.000889094589346
-3.65606130848e-07
-2.05769942705e-07
0.000889130314399
-4.34809095487e-07
-2.04750774878e-07
0.000889142881488
-5.04959402022e-07
-2.04518701372e-07
0.000889156491008
-5.87707834385e-07
-2.0353028075e-07
0.000889263366097
-6.6714920649e-07
-2.0335646229e-07
0.000889241816709
-6.97508645981e-07
-2.02836518296e-07
0.000889365411133
-7.20578243836e-07
-2.0491213911e-07
0.000889115094622
-2.09927063703e-07
0.000886968066474
-4.13355724547e-08
-2.54170772784e-07
0.000889039737735
-7.98419292894e-08
-2.53987460863e-07
0.000889043140925
-1.20718838803e-07
-2.53908748807e-07
0.000889044405493
-1.61624370945e-07
-2.53559500295e-07
0.00088903916907
-2.07816208581e-07
-2.53290239097e-07
0.000889075312981
-2.54060697725e-07
-2.529042652e-07
0.000889054048986
-3.09410372633e-07
-2.52239904955e-07
0.000889073398291
-3.649778672e-07
-2.52033568256e-07
0.000889109231225
-4.33928226232e-07
-2.50745698379e-07
0.00088912177945
-5.03688989474e-07
-2.50734219508e-07
0.000889135583237
-5.85910722856e-07
-2.49208316321e-07
0.0008892423422
-6.64466203755e-07
-2.49326284727e-07
0.000889220839665
-6.93920490724e-07
-2.48101473964e-07
0.000889343665328
-7.16839100844e-07
-2.49162775823e-07
0.000889089265155
-2.51398592454e-07
0.000886933885293
-4.11925792312e-08
-3.09800369522e-07
0.000889059088166
-7.96008124599e-08
-3.09582365587e-07
0.0008890625073
-1.20353141e-07
-3.09546929238e-07
0.00088906375962
-1.61162790507e-07
-3.09102688409e-07
0.000889058538461
-2.07216319551e-07
-3.08869452366e-07
0.000889094646287
-2.53374154073e-07
-3.08360833747e-07
0.000889073391497
-3.08625123159e-07
-3.07594124805e-07
0.000889092647128
-3.64177874286e-07
-3.07304510142e-07
0.000889128478721
-4.332743171e-07
-3.05546632371e-07
0.000889140836041
-5.03387637617e-07
-3.05598978028e-07
0.000889154698243
-5.86561808828e-07
-3.02901100674e-07
0.000889261108596
-6.66237233134e-07
-3.03099622024e-07
0.000889239699875
-6.97924571242e-07
-3.00575040481e-07
0.000889363205407
-7.22434487427e-07
-3.03189544861e-07
0.00088911458833
-3.0782641337e-07
0.000886971512924
-4.1120990186e-08
-3.65598331637e-07
0.000889094749394
-7.95050888694e-08
-3.6533992534e-07
0.000889098200229
-1.20204204301e-07
-3.65387779213e-07
0.000889099457145
-1.61015031196e-07
-3.64824897079e-07
0.00088909429716
-2.07006552552e-07
-3.64699162839e-07
0.000889130414018
-2.53182433911e-07
-3.64041392488e-07
0.00088910927069
-3.08351940868e-07
-3.63255856522e-07
0.000889128519759
-3.63866383905e-07
-3.62928476012e-07
0.00088916456839
-4.32787581702e-07
-3.60763844458e-07
0.000889176880342
-5.02550269913e-07
-3.61172307677e-07
0.000889191135666
-5.85270260131e-07
-3.57237247517e-07
0.00088929743327
-6.6380405462e-07
-3.58217257597e-07
0.000889276388804
-6.94520291032e-07
-3.53618438224e-07
0.00088939838687
-7.18161486626e-07
-3.55170851401e-07
0.000889141821289
-3.55147165887e-07
0.000886981129969
-4.09349815555e-08
-4.34756272918e-07
0.000889107392879
-7.91762302437e-08
-4.34441749497e-07
0.000889110851088
-1.19664857451e-07
-4.34645749476e-07
0.000889112087506
-1.60294689385e-07
-4.33903536976e-07
0.000889106924619
-2.05966415313e-07
-4.34023547792e-07
0.000889142976133
-2.51876349007e-07
-4.33115888205e-07
0.000889121818953
-3.06579254108e-07
-4.32471563245e-07
0.000889140876906
-3.616905813e-07
-4.31970210329e-07
0.000889176883459
-4.3015791766e-07
-4.29347392172e-07
0.000889188721019
-4.99583897946e-07
-4.29954151405e-07
0.000889202975862
-5.82726026847e-07
-4.2387684015e-07
0.000889308224953
-6.61608878131e-07
-4.25431731915e-07
0.000889287287202
-6.95970623508e-07
-4.1649311004e-07
0.000889410191951
-7.23458419714e-07
-4.19164689593e-07
0.000889165066763
-4.16178868126e-07
0.00088702880833
-4.0806789317e-08
-5.04777098642e-07
0.000889120821241
-7.89920817325e-08
-5.04378239111e-07
0.000889124305802
-1.1939552952e-07
-5.04791599775e-07
0.000889125557095
-1.60077595533e-07
-5.03785078232e-07
0.000889120484496
-2.05734683605e-07
-5.04293694343e-07
0.000889156608363
-2.51867738668e-07
-5.03002291498e-07
0.000889135650102
-3.0663646718e-07
-5.02705644899e-07
0.000889154763217
-3.6210418236e-07
-5.01857291246e-07
0.000889191164434
-4.30769487902e-07
-4.98893377925e-07
0.00088920299961
-5.00364808199e-07
-4.99671441344e-07
0.000889217927094
-5.836695193e-07
-4.91407965266e-07
0.000889323257897
-6.62145064324e-07
-4.9425321916e-07
0.000889303758094
-6.96954160525e-07
-4.78888497678e-07
0.00088942333162
-7.21643011137e-07
-4.82807390686e-07
0.000889164129699
-4.72979870943e-07
0.000886992053511
-4.07215210134e-08
-5.8702777248e-07
0.000889227883148
-7.88497904829e-08
-5.86514620963e-07
0.000889231364792
-1.19083560281e-07
-5.8728833999e-07
0.000889232606372
-1.5958580593e-07
-5.8592869207e-07
0.000889227472952
-2.04733500696e-07
-5.87168526767e-07
0.000889263483415
-2.50330490453e-07
-5.85357533242e-07
0.000889242411995
-3.03929355227e-07
-5.86007560598e-07
0.000889261176134
-3.5816202316e-07
-5.84709563084e-07
0.000889297466483
-4.24688295107e-07
-5.82162455856e-07
0.000889308253136
-4.9210072124e-07
-5.83105307341e-07
0.000889323263314
-5.7305574361e-07
-5.72488600642e-07
0.000889425659646
-6.48444148774e-07
-5.76760056826e-07
0.000889406413868
-6.87468279553e-07
-5.50045153949e-07
0.000889526352071
-7.17963177463e-07
-5.55893091508e-07
0.000889293352679
-5.19147928478e-07
0.000887165667353
-4.06256606647e-08
-6.66033378483e-07
0.000889206219177
-7.87133009493e-08
-6.65365408978e-07
0.000889209700404
-1.18878750366e-07
-6.66548091741e-07
0.000889210989623
-1.59432127639e-07
-6.64674417017e-07
0.000889205848094
-2.04555007516e-07
-6.66735450248e-07
0.000889241943956
-2.50445055007e-07
-6.64047638754e-07
0.000889220922396
-3.04125536608e-07
-6.65811638295e-07
0.000889239778974
-3.59140161579e-07
-6.63377900029e-07
0.000889276434898
-4.26242056092e-07
-6.61173706766e-07
0.000889287327927
-4.94943938818e-07
-6.61713774588e-07
0.000889303776158
-5.77324708973e-07
-6.48005407483e-07
0.000889406426436
-6.54489749829e-07
-6.54053457159e-07
0.000889391880082
-7.00792697286e-07
-6.10906335018e-07
0.000889508995954
-7.29985098043e-07
-6.28761672522e-07
0.00088925723698
-5.88901206981e-07
0.000887065339945
-4.06493766974e-08
-6.95422501389e-07
0.000889329585311
-7.86945344863e-08
-6.94590830821e-07
0.000889332963227
-1.18865380227e-07
-6.96326977243e-07
0.000889334474012
-1.59191130306e-07
-6.93914806309e-07
0.000889328975536
-2.04031491726e-07
-6.97226593969e-07
0.000889365541239
-2.49217659136e-07
-6.93642623465e-07
0.000889343749557
-3.01599704527e-07
-6.97633714892e-07
0.000889363287983
-3.54541732644e-07
-6.9423461285e-07
0.000889398435324
-4.17304784951e-07
-6.95671867138e-07
0.000889410237654
-4.79581749919e-07
-6.96661916962e-07
0.00088942335232
-5.50613898378e-07
-6.87163744331e-07
0.000889526367982
-6.11348865726e-07
-7.00490116447e-07
0.000889508998141
-6.4814587903e-07
-6.4783246604e-07
0.00088964165234
-6.64566975712e-07
-6.91739221227e-07
0.000889464890256
-5.22154189161e-07
0.000887345524601
-4.11421048143e-08
-7.17713351049e-07
0.000889077814201
-7.91639705588e-08
-7.16940427911e-07
0.000889080599304
-1.2023780995e-07
-7.18857354811e-07
0.000889083291207
-1.60015633197e-07
-7.16527336529e-07
0.000889075843633
-2.0613181626e-07
-7.2044199239e-07
0.000889115236532
-2.50301983235e-07
-7.1670922653e-07
0.000889089345064
-3.04235977232e-07
-7.22291235481e-07
0.000889114680658
-3.56112377017e-07
-7.18024305757e-07
0.000889141867362
-4.19989138654e-07
-7.23309348611e-07
0.00088916511876
-4.83507620792e-07
-7.21499490624e-07
0.00088916414983
-5.56459340512e-07
-7.17808661186e-07
0.000889293374685
-6.29188716204e-07
-7.29832854284e-07
0.000889257240655
-6.92021567659e-07
-6.64403663186e-07
0.000889464895112
-7.33266488736e-07
-7.33123399613e-07
0.00088924498595
-5.50533012301e-07
0.000887152826163
-4.23258496208e-08
0.000886927439978
-8.03784792692e-08
0.000886929093292
-1.23597585447e-07
0.000886934204411
-1.62145177944e-07
0.000886922967864
-2.11170980327e-07
0.000886968223952
-2.52560174345e-07
0.000886933953865
-3.088934818e-07
0.000886971616726
-3.56107637474e-07
0.000886981167913
-4.17019454001e-07
0.00088702886785
-4.73694213233e-07
0.000886992068199
-5.19723212817e-07
0.000887165694065
-5.8933312174e-07
0.000887065340409
-5.22430281642e-07
0.000887345530937
-5.50669828122e-07
0.000887152822116
0.000883879493138
-4.30777764941e-08
-4.1530310366e-08
0.00088910443524
-8.27922019703e-08
-4.14475218619e-08
0.000889107798767
-1.24584206595e-07
-4.14389575175e-08
0.000889110391476
-1.66088320545e-07
-4.13211352424e-08
0.000889105822383
-2.11969727803e-07
-4.12567805828e-08
0.00088914443102
-2.57204846716e-07
-4.11283913171e-08
0.000889124675324
-3.09045580943e-07
-4.10082399219e-08
0.000889147096461
-3.59422453905e-07
-4.08987438158e-08
0.000889185406136
-4.16391838572e-07
-4.07316513039e-08
0.000889198711322
-4.70965035646e-07
-4.0648296786e-08
0.000889216472058
-5.20642546621e-07
-4.0471344482e-08
0.000889309621527
-5.69814983884e-07
-4.04435570092e-08
0.000889296964916
-5.66793199144e-07
-4.04917200227e-08
0.000889357127154
-6.20761486248e-07
-4.14199396982e-08
0.000889171544459
-4.21704327585e-08
0.00088634003429
-4.30626469158e-08
-8.13311586944e-08
0.000889108198095
-8.27472687184e-08
-8.11807398672e-08
0.000889111571184
-1.24507968356e-07
-8.1163642058e-08
0.000889114166456
-1.65984805724e-07
-8.09526393578e-08
0.000889109618324
-2.1183561634e-07
-8.08422159798e-08
0.000889148238025
-2.57040957368e-07
-8.06183353414e-08
0.00088912850859
-3.08842815644e-07
-8.04076778364e-08
0.00088915094183
-3.59170890239e-07
-8.02302741955e-08
0.000889189278268
-4.16074334893e-07
-7.99290191505e-08
0.000889202588319
-4.70552760603e-07
-7.98159249153e-08
0.000889220368031
-5.20102291074e-07
-7.9486240036e-08
0.000889313506108
-5.69106682163e-07
-7.94677813445e-08
0.000889300834653
-5.65896394463e-07
-7.95070052963e-08
0.000889360861394
-6.19938124561e-07
-8.08994740428e-08
0.000889174559588
-8.13533302207e-08
0.000886341677326
-4.29911809429e-08
-1.23222926216e-07
0.000889110582192
-8.26476914659e-08
-1.23007608432e-07
0.000889113990356
-1.2438122455e-07
-1.22979978124e-07
0.000889116571726
-1.65846373575e-07
-1.22672076307e-07
0.000889112056942
-2.11693765215e-07
-1.22508926872e-07
0.000889150664117
-2.56921037913e-07
-1.22177490242e-07
0.000889130964582
-3.08771998921e-07
-1.21852055769e-07
0.00088915338409
-3.59189652042e-07
-1.21585192154e-07
0.000889191750079
-4.16254852047e-07
-1.21089694172e-07
0.000889205045089
-4.70951620841e-07
-1.20922590796e-07
0.000889222859278
-5.20865188576e-07
-1.20331701961e-07
0.000889316003028
-5.7029685054e-07
-1.20311603464e-07
0.000889303411146
-5.67617859584e-07
-1.2040755428e-07
0.000889363730754
-6.21581107623e-07
-1.23351478168e-07
0.000889179002327
-1.25673751134e-07
0.00088634906627
-4.29041311689e-08
-1.64826461145e-07
0.00088910625223
-8.2496147913e-08
-1.64568337009e-07
0.000889109722094
-1.241591509e-07
-1.64534997545e-07
0.000889112292671
-1.65567377943e-07
-1.64156534386e-07
0.000889107857545
-2.11343554062e-07
-1.63961968483e-07
0.000889146472416
-2.56502270138e-07
-1.63557732592e-07
0.000889126857182
-3.08252059599e-07
-1.63149601623e-07
0.000889149287263
-3.58541020804e-07
-1.62849250468e-07
0.000889187734585
-4.1541656625e-07
-1.62196270377e-07
0.000889201021884
-4.6981807277e-07
-1.62068478557e-07
0.000889218898756
-5.19342580965e-07
-1.61252035289e-07
0.000889311989095
-5.68243679654e-07
-1.6133156803e-07
0.000889299357701
-5.64970867438e-07
-1.61301202825e-07
0.00088935922369
-6.19087905521e-07
-1.64502702431e-07
0.000889172111146
-1.65517379728e-07
0.000886337630258
-4.27884035655e-08
-2.10834590935e-07
0.000889144739509
-8.23226120013e-08
-2.10533909833e-07
0.000889148244026
-1.23923478604e-07
-2.10499558218e-07
0.000889150801543
-1.65297193507e-07
-2.10036934839e-07
0.000889146402137
-2.11041133995e-07
-2.09810276992e-07
0.000889184996989
-2.56216856079e-07
-2.09301383144e-07
0.000889165414965
-3.08019133775e-07
-2.08773547418e-07
0.000889187806258
-3.58447970934e-07
-2.08382704194e-07
0.000889226290689
-4.15589683285e-07
-2.07449866235e-07
0.000889239514903
-4.70354905253e-07
-2.07265787613e-07
0.000889257438612
-5.20594998906e-07
-2.05976783735e-07
0.000889350490765
-5.70369303252e-07
-2.06100791767e-07
0.000889338009705
-5.68252419509e-07
-2.0597658121e-07
0.000889398491258
-6.22312425063e-07
-2.1159801809e-07
0.000889215015338
-2.15575385587e-07
0.000886387404666
-4.26636570663e-08
-2.56173173371e-07
0.000889125102711
-8.21216353392e-08
-2.55845863032e-07
0.000889128685596
-1.23633098668e-07
-2.55828685367e-07
0.000889131231604
-1.64944771246e-07
-2.5529778389e-07
0.000889126937082
-2.10595550306e-07
-2.55084309961e-07
0.000889165539908
-2.55695337464e-07
-2.54497777105e-07
0.000889146079494
-3.07359986713e-07
-2.53914316945e-07
0.000889168476968
-3.57621433938e-07
-2.5349820849e-07
0.000889207096623
-4.14485962589e-07
-2.52359991245e-07
0.000889220293656
-4.68783931958e-07
-2.5226420889e-07
0.000889238350835
-5.18404686253e-07
-2.50589048326e-07
0.000889331298165
-5.67251255639e-07
-2.51003080924e-07
0.000889318797428
-5.64124116324e-07
-2.50519815688e-07
0.000889378375109
-6.18242938171e-07
-2.56637513198e-07
0.000889190094875
-2.58430597111e-07
0.000886353063098
-4.2502836681e-08
-3.08145587388e-07
0.00088914746082
-8.18642399438e-08
-3.07785641623e-07
0.000889151073586
-1.23256492583e-07
-3.0780938973e-07
0.000889153604047
-1.64484449864e-07
-3.07178121102e-07
0.000889149337774
-2.1001683788e-07
-3.07010414126e-07