/*--------------------------------*- C++ -*----------------------------------*\
| =========                 |                                                 |
| \\      /  F ield         | OpenFOAM: The Open Source CFD Toolbox           |
|  \\    /   O peration     | Version:  2406                                  |
|   \\  /    A nd           | Website:  www.openfoam.com                      |
|    \\/     M anipulation  |                                                 |
\*---------------------------------------------------------------------------*/
FoamFile
{
    version     2.0;
    format      ascii;
    arch        "LSB;label=32;scalar=64";
    class       volVectorField;
    location    "0.01";
    object      U;
}
// * * * * * * * * * * * * * * * * * * * * * * * * * * * * * * * * * * * * * //

dimensions      [0 1 -1 0 0 0 0];

internalField   nonuniform List<vector> 
29768
(
(-6.8364977914e-06 -6.27462099243e-06 0.800028579843)
(-2.8754550911e-05 -6.26488706279e-06 0.800028929257)
(-4.00751390231e-05 -6.2610128651e-06 0.800030471277)
(-6.57173154174e-05 -6.24642450561e-06 0.800031542056)
(-7.67907978556e-05 -6.22969467374e-06 0.80003558768)
(-0.000111841610839 -6.21272323015e-06 0.80003746061)
(-0.000122049160437 -6.17804625407e-06 0.800046747473)
(-0.000177658916965 -6.15801160816e-06 0.80004933816)
(-0.000184957791734 -6.09811379913e-06 0.800071156413)
(-0.000286191261586 -6.08280524599e-06 0.800074290284)
(-0.000283900398285 -5.94701527229e-06 0.800128836166)
(-0.000491713246265 -5.83584177479e-06 0.800132679201)
(-0.000454648730736 -5.28547892051e-06 0.800300620356)
(-0.000910400000393 -2.69572018558e-06 0.800102775519)
(-0.000503056301262 1.56967380432e-06 0.798941804583)
(-6.83713323279e-06 -2.81656156815e-05 0.800028925305)
(-2.87464299777e-05 -2.81427526869e-05 0.800029273506)
(-4.00622608202e-05 -2.81271167006e-05 0.800030816627)
(-6.56928406321e-05 -2.80914633548e-05 0.800031886799)
(-7.67633059404e-05 -2.80468888342e-05 0.800035933013)
(-0.000111796695728 -2.80121761078e-05 0.800037806342)
(-0.000121999742232 -2.79381485167e-05 0.80004709226)
(-0.000177582276492 -2.79252717518e-05 0.800049683563)
(-0.000184863579134 -2.78481898853e-05 0.800071502621)
(-0.000286050389049 -2.79389506433e-05 0.800074636667)
(-0.000283711953833 -2.78576748522e-05 0.800129182219)
(-0.000491439425437 -2.80784154147e-05 0.800133024597)
(-0.000454268495766 -2.85483852508e-05 0.800300917548)
(-0.000909897726373 -3.13092025312e-05 0.800102875197)
(-0.000502586436551 -4.8801582227e-05 0.798941380018)
(-6.82287056385e-06 -3.95599238608e-05 0.800030490419)
(-2.8716050728e-05 -3.95216857744e-05 0.800030838402)
(-4.00238585183e-05 -3.950084839e-05 0.800032380386)
(-6.56370914468e-05 -3.94469801835e-05 0.80003345034)
(-7.67113251626e-05 -3.93799983388e-05 0.800037492941)
(-0.000111731934033 -3.93323391668e-05 0.800039365506)
(-0.000121959782615 -3.92054738614e-05 0.800048642822)
(-0.000177559281917 -3.91891012986e-05 0.80005123088)
(-0.000184899625003 -3.9012433703e-05 0.800073043694)
(-0.00028619157781 -3.91192636311e-05 0.800076158528)
(-0.000283985492421 -3.87916276415e-05 0.800130716821)
(-0.000491993543531 -3.88498851048e-05 0.800134599261)
(-0.000455047295582 -3.81384585953e-05 0.800302596959)
(-0.000911164055101 -3.51868729407e-05 0.800105033873)
(-0.000503579069963 -4.19484414923e-05 0.79894623111)
(-6.81369745871e-06 -6.51818152375e-05 0.800031563115)
(-2.86873413402e-05 -6.51297227257e-05 0.800031908973)
(-3.99875518008e-05 -6.50946746709e-05 0.800033452804)
(-6.55719758276e-05 -6.5012059767e-05 0.800034523056)
(-7.66483885183e-05 -6.49052137061e-05 0.800038566207)
(-0.000111620858384 -6.48231079582e-05 0.800040443407)
(-0.000121852961531 -6.46160337173e-05 0.80004971791)
(-0.000177373548122 -6.45769012437e-05 0.800052314911)
(-0.000184681932774 -6.42873043453e-05 0.800074128953)
(-0.000285846464956 -6.44279808593e-05 0.800077195655)
(-0.000283509421234 -6.40078799431e-05 0.800131805732)
(-0.000491256063611 -6.43584743042e-05 0.800135703694)
(-0.000453971851689 -6.46993478441e-05 0.800303533692)
(-0.000909704095891 -6.83682001893e-05 0.800105265023)
(-0.000502126837238 -0.000102056768852 0.798944446931)
(-6.78715390193e-06 -7.6341446473e-05 0.800035624873)
(-2.86289008565e-05 -7.62803953101e-05 0.800035969873)
(-3.99062018101e-05 -7.62488141438e-05 0.800037511165)
(-6.5447625044e-05 -7.61611289317e-05 0.800038580356)
(-7.65221378128e-05 -7.60506604637e-05 0.800042614337)
(-0.000111441517077 -7.59909158407e-05 0.800044489702)
(-0.00012170995463 -7.5755895343e-05 0.8000537412)
(-0.000177210417353 -7.58035205887e-05 0.800056333472)
(-0.000184617563355 -7.54391736468e-05 0.800078113119)
(-0.000285938218198 -7.57528502506e-05 0.800081053053)
(-0.000283828697996 -7.51431409962e-05 0.800135730792)
(-0.000492140653887 -7.55724364087e-05 0.800139724208)
(-0.000455291454875 -7.44437354262e-05 0.800307765227)
(-0.00091222228238 -7.06965536217e-05 0.800110710291)
(-0.000504045622133 -8.73409445361e-05 0.798956906247)
(-6.77128939223e-06 -0.000111383026763 0.800037503123)
(-2.85948972168e-05 -0.000111304673557 0.8000378466)
(-3.98685597656e-05 -0.000111261759803 0.800039389255)
(-6.53740514677e-05 -0.00011112751812 0.800040462347)
(-7.64781730557e-05 -0.000110965714804 0.800044495997)
(-0.00011132502782 -0.000110835766042 0.800046388093)
(-0.000121661830344 -0.000110443977572 0.800055635946)
(-0.000177032484781 -0.000110407797104 0.800058268931)
(-0.000184499372882 -0.000109688052248 0.80008004207)
(-0.000285610072973 -0.00010990182921 0.800082971042)
(-0.00028339209395 -0.000108746072263 0.800137711516)
(-0.000491282025409 -0.000109341631046 0.800141811035)
(-0.000453855563113 -0.000109091674929 0.800309490191)
(-0.000910150233113 -0.000114938332912 0.800110834786)
(-0.000501558566596 -0.000170596787752 0.798951831829)
(-6.7278292143e-06 -0.00012167758501 0.800046800433)
(-2.85086065254e-05 -0.000121593788943 0.800047141578)
(-3.97303849326e-05 -0.000121572760348 0.800048677202)
(-6.51528342092e-05 -0.000121439806275 0.800049746259)
(-7.62314642553e-05 -0.000121310922194 0.800053757577)
(-0.000110919793448 -0.000121245343211 0.800055645025)
(-0.000121279828158 -0.000120873365767 0.800064835666)
(-0.000176432033595 -0.000121083897486 0.800067463777)
(-0.0001840063293 -0.000120330632678 0.800089109015)
(-0.000285042996152 -0.000121128678031 0.800091908837)
(-0.000283083691655 -0.000119870944834 0.800146552)
(-0.000491650887266 -0.000121263884386 0.800150819006)
(-0.000454731512203 -0.000118953981488 0.800318733433)
(-0.000913471317078 -0.000114352558508 0.800122695418)
(-0.000503553752693 -0.000139914763149 0.798979519007)
(-6.70602834589e-06 -0.000177289766354 0.800049397478)
(-2.84926490411e-05 -0.000177181161715 0.800049737609)
(-3.97182042366e-05 -0.000177176818788 0.800051271697)
(-6.51159068181e-05 -0.00017696798461 0.800052348848)
(-7.62875081682e-05 -0.000176819276815 0.800056356633)
(-0.000110889700691 -0.000176626994387 0.800058284522)
(-0.000121500436896 -0.000176037116496 0.800067471089)
(-0.000176468583803 -0.000176066248998 0.800070218833)
(-0.000184470443661 -0.000174559171728 0.800091856105)
(-0.000285206310352 -0.000175076052655 0.80009493365)
(-0.000283610607101 -0.000172123101778 0.800149551149)
(-0.000491700133422 -0.000173477982726 0.800154225881)
(-0.000454320216181 -0.000170759304126 0.800321375265)
(-0.000912485431538 -0.000181770975908 0.80012208703)
(-0.00050065820023 -0.000268732821408 0.798966218118)
(-6.6389732833e-06 -0.000184670760099 0.800071222039)
(-2.84056845019e-05 -0.000184547749491 0.800071561848)
(-3.95332305565e-05 -0.00018459773553 0.800073091339)
(-6.48157569301e-05 -0.0001843578111 0.800074168871)
(-7.59151203498e-05 -0.000184303327247 0.800078143233)
(-0.000110160377013 -0.000184170079695 0.80008006396)
(-0.000120740513709 -0.000183683681644 0.800089122989)
(-0.000174954276539 -0.00018413892285 0.800091862247)
(-0.000182996031568 -0.00018266867501 0.800113143807)
(-0.000282630696482 -0.000184555071043 0.800116080415)
(-0.000281199616716 -0.000181566852342 0.800170106213)
(-0.00048893001083 -0.000185552954348 0.800175046865)
(-0.000451870693871 -0.000179477940267 0.800341245219)
(-0.000913867438519 -0.000176032430134 0.800148112957)
(-0.000497105368138 -0.000209043471487 0.799027391397)
(-6.62243445321e-06 -0.000285916392998 0.800074362264)
(-2.84938077454e-05 -0.000285751120333 0.800074701092)
(-3.96423476577e-05 -0.000285904358399 0.80007621302)
(-6.4956707507e-05 -0.000285541487792 0.800077241487)
(-7.62332053278e-05 -0.000285642193153 0.800081089464)
(-0.000110376467622 -0.000285303010379 0.800082998495)
(-0.000121543738748 -0.000284741957071 0.800091928947)
(-0.000175474443845 -0.000284899481365 0.800094945841)
(-0.000184886922871 -0.000282327575762 0.800116087074)
(-0.000284044878389 -0.000283739125066 0.800120274494)
(-0.000284870022107 -0.000276789284146 0.800173749015)
(-0.000492549973723 -0.000280645656928 0.800180008624)
(-0.000456870671627 -0.000269411328569 0.800345420522)
(-0.000921358303776 -0.000295956833134 0.800145368498)
(-0.000499527977306 -0.000422156739446 0.798994313179)
(-6.47929361711e-06 -0.000283701649243 0.80012891224)
(-2.84033422734e-05 -0.000283495222852 0.800129250068)
(-3.93070610293e-05 -0.000283774955745 0.800130775621)
(-6.45275267767e-05 -0.000283285263333 0.800131855566)
(-7.56167735629e-05 -0.000283608093854 0.80013577238)
(-0.00010921322441 -0.00028316244973 0.800137744049)
(-0.000120281100646 -0.000282855549676 0.800146577478)
(-0.000172516278446 -0.000283377435164 0.800149568346)
(-0.000181896144527 -0.000280966915104 0.800170117678)
(-0.00027709249248 -0.000284634986662 0.800173753669)
(-0.000277467898057 -0.000277232649746 0.800225784705)
(-0.000478964215669 -0.000287800238305 0.800232406425)
(-0.000440652383426 -0.000268479226315 0.800393274258)
(-0.000906688232014 -0.000277603241628 0.800206609063)
(-0.000456831479266 -0.000316917897178 0.799131051443)
(-6.36670273259e-06 -0.000491534208203 0.800132758487)
(-2.86218168837e-05 -0.000491248447005 0.80013309483)
(-3.93656618874e-05 -0.000491805433236 0.800134661159)
(-6.4877606658e-05 -0.000491059852361 0.800135756061)
(-7.60478834302e-05 -0.000491945585079 0.800139768925)
(-0.00010980979408 -0.000491082626826 0.800141846419)
(-0.000121676461211 -0.000491451284079 0.800150847821)
(-0.000173872925434 -0.000491499011194 0.800154246139)
(-0.000185883929025 -0.000488728116947 0.800175061785)
(-0.000280949301893 -0.000492348120241 0.800180016353)
(-0.000288035838705 -0.000478760708978 0.800232409897)
(-0.000492041784324 -0.000491839402988 0.800241285914)
(-0.000464664339894 -0.000454403917809 0.800399439731)
(-0.000957521782397 -0.000542017477996 0.800197349625)
(-0.000502852485247 -0.000662240699454 0.799052374775)
(-5.81135497288e-06 -0.000454539375893 0.800300699802)
(-2.90869243593e-05 -0.000454155810223 0.800300986857)
(-3.86490067344e-05 -0.000454930466943 0.800302658863)
(-6.52139683096e-05 -0.000453853344326 0.800303585168)
(-7.49141899124e-05 -0.000455168110195 0.800307809694)
(-0.000109556069421 -0.000453732155989 0.800309524547)
(-0.000119362133049 -0.000454603032047 0.800318761509)
(-0.000171151311789 -0.000454193187609 0.800321393754)
(-0.000179805084839 -0.000451740537533 0.800341256456)
(-0.000269714342107 -0.0004567405499 0.800345426401)
(-0.000268712600303 -0.000440518030675 0.800393276044)
(-0.000454607149357 -0.000464531186091 0.800399437466)
(-0.000392176882734 -0.000392043635481 0.800540700091)
(-0.000863672291958 -0.000464612959769 0.800358161654)
(-0.000236452628294 -0.00053475599613 0.799354708258)
(-3.21293530452e-06 -0.000910311242058 0.800102863575)
(-3.18457092683e-05 -0.000909811379675 0.800102950551)
(-3.56879238383e-05 -0.000911070603029 0.800105102391)
(-6.88827749792e-05 -0.000909614223331 0.800105320528)
(-7.11574791726e-05 -0.00091212540201 0.800110759372)
(-0.000115403990453 -0.000910057757273 0.800110871263)
(-0.0001147516153 -0.000913372280949 0.800122726073)
(-0.000182164659313 -0.000912391122685 0.800122106344)
(-0.000176351375652 -0.000913767355135 0.800148126836)
(-0.000296261464589 -0.000921261532446 0.800145373689)
(-0.000277827250864 -0.000906585984361 0.800206610119)
(-0.000542218801605 -0.000957421203724 0.800197344715)
(-0.000464730777162 -0.000863567658388 0.800358156566)
(-0.00121779687413 -0.00121770196691 0.80018696496)
(-0.000559634072122 -0.000931370748052 0.799143860958)
(9.15410335747e-07 -0.000503024835294 0.798941967187)
(-4.94879555152e-05 -0.000502558711346 0.798941513157)
(-4.25794391013e-05 -0.000503546212422 0.798946360205)
(-0.000102716360407 -0.000502097986575 0.798944547206)
(-8.79193694761e-05 -0.000504012023098 0.798957001659)
(-0.000171195223919 -0.000501528700481 0.798951900724)
(-0.000140414154435 -0.000503519524832 0.798979582675)
(-0.000269240466185 -0.000500627541733 0.79896625892)
(-0.000209441436102 -0.000497071732727 0.799027427119)
(-0.000422551191324 -0.000499496984145 0.798994331021)
(-0.000317196095835 -0.000456797899981 0.799131064386)
(-0.000662503840078 -0.000502821729276 0.799052375095)
(-0.000534900167475 -0.000236420232479 0.79935470574)
(-0.000931492328369 -0.000559609596966 0.79914385483)
(-0.00118217769179 -0.00118215868066 0.796638574357)
(-9.59917884164e-06 -8.79257142581e-06 0.800080740451)
(-3.59187465218e-05 -8.78206176815e-06 0.800081025118)
(-5.19061522641e-05 -8.77551083604e-06 0.800083731986)
(-8.08647595977e-05 -8.75617663916e-06 0.800085208662)
(-9.67960567898e-05 -8.73412768064e-06 0.800092003241)
(-0.000131617055103 -8.70783553661e-06 0.800095113165)
(-0.000147489538037 -8.66430371009e-06 0.800110298147)
(-0.000192342596781 -8.62923480736e-06 0.800115754139)
(-0.000208361030328 -8.55182715357e-06 0.800150483717)
(-0.000267850669014 -8.47358072225e-06 0.800157821344)
(-0.000284798960304 -8.36152403708e-06 0.80024018122)
(-0.000357629422989 -8.17268163563e-06 0.800234325447)
(-0.000371212742837 -7.55705515223e-06 0.800394368396)
(-0.000389259553675 -4.55733236428e-06 0.80008836908)
(-0.000395289263178 6.86627840251e-07 0.798761043792)
(-9.59863116745e-06 -3.50957955803e-05 0.800081205024)
(-3.59067169904e-05 -3.50686499715e-05 0.800081493783)
(-5.18857647744e-05 -3.50466173357e-05 0.800084199703)
(-8.08304513438e-05 -3.49994462816e-05 0.800085685216)
(-9.67545333389e-05 -3.49460037176e-05 0.800092481931)
(-0.000131555851321 -3.4894103996e-05 0.800095604543)
(-0.000147419515342 -3.48103253568e-05 0.80011079421)
(-0.000192242330571 -3.47761036839e-05 0.800116266584)
(-0.000208241170301 -3.46772098322e-05 0.800150996171)
(-0.000267680990815 -3.4632388533e-05 0.800158348465)
(-0.000284574892569 -3.46669349031e-05 0.800240706007)
(-0.000357319578494 -3.47658932783e-05 0.800234851392)
(-0.000370801616597 -3.54141168372e-05 0.800394825482)
(-0.000388756363869 -3.89235250568e-05 0.800088410965)
(-0.000394938792822 -4.54322176777e-05 0.798760299164)
(-9.57941176115e-06 -5.11629921635e-05 0.800083790165)
(-3.58695692885e-05 -5.11174952198e-05 0.800084092047)
(-5.183692762e-05 -5.10852713801e-05 0.800086790415)
(-8.07641164744e-05 -5.10103951496e-05 0.800088288283)
(-9.66909171372e-05 -5.09265287122e-05 0.800095075631)
(-0.000131482581515 -5.08433595762e-05 0.800098209189)
(-0.00014737466066 -5.06932852422e-05 0.800113388212)
(-0.000192220216984 -5.06239317638e-05 0.800118871179)
(-0.000208292715441 -5.03913351049e-05 0.800153579274)
(-0.000267837877255 -5.02477760948e-05 0.800160948642)
(-0.00028486545092 -5.00728283597e-05 0.800243284323)
(-0.000357882311568 -4.98390643905e-05 0.800237456433)
(-0.000371552062196 -4.91780002129e-05 0.800397553026)
(-0.000389930984147 -4.61538240972e-05 0.800091841875)
(-0.00039588260012 -4.09498040422e-05 0.798765403489)
(-9.56369065244e-06 -8.01167309291e-05 0.800085383303)
(-3.58290210119e-05 -8.00544864087e-05 0.800085708455)
(-5.17786675614e-05 -8.00063556628e-05 0.800088400303)
(-8.06717073959e-05 -7.98961492967e-05 0.800089931413)
(-9.65878242592e-05 -7.97735169288e-05 0.800096719101)
(-0.000131324338469 -7.9647314458e-05 0.800099895063)
(-0.000147204639477 -7.9427064515e-05 0.800115080866)
(-0.000191958529326 -7.93270702357e-05 0.800120618037)
(-0.000207988672093 -7.8998158042e-05 0.800155324754)
(-0.000267374476081 -7.88555577389e-05 0.800162805436)
(-0.000284262598957 -7.87021320266e-05 0.800245073754)
(-0.000357017907386 -7.87251630045e-05 0.80023926386)
(-0.000370369495671 -7.93779496234e-05 0.800399111214)
(-0.000388469471669 -8.38691203331e-05 0.800091970919)
(-0.000394795151887 -9.27193371836e-05 0.798762685611)
(-9.52774427863e-06 -9.61487048133e-05 0.800092097495)
(-3.57592291226e-05 -9.60728634853e-05 0.800092437605)
(-5.16786001322e-05 -9.60266318579e-05 0.800095117413)
(-8.05312838721e-05 -9.58983535237e-05 0.800096663197)
(-9.64423712027e-05 -9.57684947132e-05 0.800103430273)
(-0.000131137789485 -9.5636259961e-05 0.800106619469)
(-0.000147058979794 -9.53797038702e-05 0.800121772534)
(-0.000191813974432 -9.53055917648e-05 0.800127319811)
(-0.000207963966042 -9.48745571392e-05 0.800161966967)
(-0.000267505170653 -9.47853198926e-05 0.800169559063)
(-0.000284670982204 -9.44103902769e-05 0.800251644516)
(-0.000357959048219 -9.42341244548e-05 0.800245872747)
(-0.000371687600516 -9.3324741687e-05 0.800405988353)
(-0.000390780753323 -8.9704818814e-05 0.800100726332)
(-0.000396762678707 -8.31645402634e-05 0.798775885633)
(-9.49985414907e-06 -0.000130977136856 0.800095271357)
(-3.57067415979e-05 -0.000130881415895 0.800095644077)
(-5.16038330794e-05 -0.000130826169779 0.800098316274)
(-8.04132901251e-05 -0.000130643578658 0.800099912626)
(-9.63257358204e-05 -0.000130473319199 0.80010667983)
(-0.000130937042061 -0.000130258455871 0.800109943823)
(-0.000146878772538 -0.000129884106931 0.800125103091)
(-0.000191482099585 -0.000129710411708 0.800130765977)
(-0.000207619882324 -0.000129029114651 0.80016541682)
(-0.000266897503608 -0.000128867685034 0.800173262117)
(-0.000283899869687 -0.000128149627294 0.800255233181)
(-0.000356772043627 -0.000128145550108 0.800249573411)
(-0.000369942191359 -0.000128484706033 0.800409107381)
(-0.000388610143208 -0.000134365847378 0.800100686084)
(-0.000394866245407 -0.000146394257811 0.798769007209)
(-9.44267486123e-06 -0.000146956587556 0.800110407627)
(-3.56070109133e-05 -0.000146850322959 0.800110796083)
(-5.14389997418e-05 -0.000146820644644 0.80011345358)
(-8.01767532198e-05 -0.000146622848005 0.80011506728)
(-9.60557432527e-05 -0.000146489824379 0.800121800114)
(-0.000130548563978 -0.000146291144742 0.80012507915)
(-0.000146513530783 -0.000145936165829 0.800140157325)
(-0.000190985174222 -0.000145879061194 0.800145824704)
(-0.000207238270687 -0.000145153876415 0.800180310411)
(-0.000266562020791 -0.000145309930198 0.80018826836)
(-0.000283905789803 -0.000144342180666 0.800269813976)
(-0.000357486192385 -0.000144492286147 0.800264179987)
(-0.000371182110669 -0.000142813055763 0.800424105066)
(-0.000391763935558 -0.000138090311357 0.800120119683)
(-0.000397837966452 -0.000128522280837 0.798798669762)
(-9.40267428939e-06 -0.000191828543472 0.800115892488)
(-3.55675492268e-05 -0.000191694361032 0.80011631611)
(-5.13717034852e-05 -0.00019168701761 0.800118969134)
(-8.00778210929e-05 -0.00019140029375 0.800120647483)
(-9.5989161646e-05 -0.000191268133494 0.800127380131)
(-0.000130380708861 -0.000190920514416 0.800130778618)
(-0.000146466629474 -0.000190433718996 0.80014585473)
(-0.000190727060628 -0.000190167782696 0.80015176238)
(-0.000207148973061 -0.000188970795427 0.800186237254)
(-0.000266110158523 -0.000188881452111 0.800194656575)
(-0.000283429012736 -0.00018687190771 0.800276156736)
(-0.000356531999032 -0.000186958281212 0.800271064591)
(-0.00036944430512 -0.000185866675423 0.800429761263)
(-0.000389747486538 -0.000193442225174 0.800119201353)
(-0.000395159201139 -0.000208093802436 0.798781979665)
(-9.31293864634e-06 -0.000207950954026 0.800150594904)
(-3.5454368526e-05 -0.000207799877319 0.800151027444)
(-5.11264188054e-05 -0.000207861931869 0.800153654512)
(-7.97348470825e-05 -0.000207533575667 0.800155339076)
(-9.55469150274e-05 -0.000207516774617 0.800162009826)
(-0.000129687645125 -0.000207156005188 0.800165417871)
(-0.000145733253669 -0.000206780162432 0.800180328006)
(-0.000189522041911 -0.000206681275564 0.800186228816)
(-0.000205972997988 -0.000205509494277 0.800220287556)
(-0.000264407785038 -0.000206061505569 0.800228810824)
(-0.000281881160911 -0.000203729845999 0.800309154318)
(-0.000355296532643 -0.000204748117822 0.800304211124)
(-0.000368292268828 -0.000200795912216 0.800463723266)
(-0.000392511724335 -0.000194928142262 0.800163285079)
(-0.000398219035658 -0.000180278584414 0.798848674154)
(-9.22668733341e-06 -0.000267468720282 0.800157941691)
(-3.54006938168e-05 -0.000267272548926 0.800158403305)
(-5.09793662006e-05 -0.000267438281026 0.800161036329)
(-7.958773532e-05 -0.000266955052434 0.800162841433)
(-9.54584714294e-05 -0.00026709224293 0.800169616874)
(-0.000129525841798 -0.000266471838324 0.800173283056)
(-0.00014589285942 -0.000266141123753 0.800188301608)
(-0.000189434506205 -0.000265682848503 0.800194665325)
(-0.000206528837103 -0.000263983754782 0.800228825516)
(-0.000264540808509 -0.000264115335859 0.80023799411)
(-0.000282627411314 -0.0002597478924 0.800318846718)
(-0.00035561809337 -0.000260473857966 0.800315878166)
(-0.000368583105304 -0.000254610686368 0.800472162623)
(-0.000393312497222 -0.00026340036921 0.800159426513)
(-0.00039544164336 -0.000274823025128 0.798808820705)
(-9.10692140515e-06 -0.000284514043339 0.8002402887)
(-3.54260991315e-05 -0.000284269788604 0.800240754397)
(-5.07966829405e-05 -0.000284563514521 0.800243362264)
(-7.94256473065e-05 -0.000283945040372 0.800245104919)
(-9.50768051575e-05 -0.000284354940891 0.800251694823)
(-0.000128800493601 -0.000283573548542 0.800255249708)
(-0.000144919922722 -0.000283579859685 0.800269841545)
(-0.000187419991895 -0.000283097501553 0.800276162005)
(-0.000204194340401 -0.000281549018968 0.800309165235)
(-0.000260171929397 -0.000282293615966 0.800318844394)
(-0.000277885454281 -0.000277550887455 0.800396114843)
(-0.000348658471825 -0.0002799996221 0.800393776803)
(-0.000360446107531 -0.000268996825229 0.800550331716)
(-0.000390999888082 -0.000264522228509 0.800266442578)
(-0.000393718386665 -0.000242401614393 0.798961225497)
(-8.91154013055e-06 -0.000357377926627 0.80023443226)
(-3.55179380437e-05 -0.000357054823268 0.800234907486)
(-5.05586015212e-05 -0.000357617821983 0.800237536449)
(-7.94437935988e-05 -0.000356744251216 0.800239302723)
(-9.48982594433e-05 -0.000357684508467 0.800245927238)
(-0.00012879364134 -0.000356492602558 0.800249597232)
(-0.000145069130273 -0.000357205157347 0.800264212955)
(-0.000187504745038 -0.000356249555317 0.8002710767)
(-0.000205212211888 -0.000355011494932 0.800304228539)
(-0.000260897074526 -0.000355334060049 0.800315882191)
(-0.000280332770934 -0.000348371956172 0.800393782869)
(-0.000350979582321 -0.000350694410545 0.800398170182)
(-0.000364856276088 -0.000332352928599 0.800551596641)
(-0.0004012693234 -0.00034325443242 0.800249015341)
(-0.000396624884485 -0.000325243106945 0.798872962039)
(-8.29233122055e-06 -0.000371053716077 0.800394467973)
(-3.6163400947e-05 -0.000370638356998 0.800394875223)
(-4.98938393115e-05 -0.000371382508491 0.800397627401)
(-8.00945649703e-05 -0.000370197579054 0.800399144939)
(-9.398575303e-05 -0.000371509100833 0.800406038715)
(-0.000129131996391 -0.000369763411001 0.800409127192)
(-0.000143387860129 -0.000370997132308 0.800424135098)
(-0.000186413807322 -0.000369260236282 0.800429770523)
(-0.000201259759063 -0.000368100818477 0.800463740811)
(-0.000255035626049 -0.000368394976168 0.800472164643)
(-0.000269331039524 -0.000360252226735 0.80055033621)
(-0.000332641557145 -0.000364663776497 0.80055159453)
(-0.00033577132855 -0.000335575362741 0.800722810346)
(-0.000372589743485 -0.000344202628764 0.800514423622)
(-0.000353771632167 -0.000318646980447 0.799214788062)
(-5.3015374132e-06 -0.000389141093573 0.800088447906)
(-3.96909767269e-05 -0.000388640651773 0.800088423571)
(-4.68773162979e-05 -0.000389805951705 0.800091899975)
(-8.46059982746e-05 -0.000388348429022 0.800091975584)
(-9.03721087519e-05 -0.000390650719207 0.800100764705)
(-0.000135033809246 -0.000388485069653 0.80010068476)
(-0.000138669552735 -0.000391630734044 0.800120141478)
(-0.000194008654234 -0.000389619144962 0.800119196289)
(-0.000195392562461 -0.000392376349373 0.800163294968)
(-0.000263838638944 -0.000393180996134 0.80015942008)
(-0.000264850652008 -0.000390860599824 0.800266445025)
(-0.000343545995319 -0.000401130816084 0.800249010059)
(-0.000344378606731 -0.000372442709104 0.800514423837)
(-0.000412018025806 -0.000411885005211 0.80022482182)
(-0.000389399244873 -0.000252159239771 0.798972451303)
(-6.63010178107e-08 -0.00039528079915 0.79876112316)
(-4.62209239407e-05 -0.000394932975496 0.798760288689)
(-4.16788037599e-05 -0.000395868981858 0.798765462172)
(-9.3479759275e-05 -0.000394783679902 0.798762671404)
(-8.38348037129e-05 -0.000396743718166 0.798775924054)
(-0.000147085733969 -0.000394849361501 0.798768991257)
(-0.000129102459217 -0.000397814512397 0.798798691239)
(-0.000208681849093 -0.000395137583297 0.798781963808)
(-0.000180742094749 -0.0003981913896 0.798848683079)
(-0.000275279836882 -0.000395416229605 0.798808806528)
(-0.000242726916781 -0.000393688679672 0.798961226729)
(-0.00032554766762 -0.000396596894668 0.798872951713)
(-0.000318815300953 -0.000353739974395 0.799214786092)
(-0.000252293148251 -0.000389375699507 0.79897244566)
(-0.000349429450368 -0.000349413600086 0.79635027298)
(-1.01992052527e-05 -9.40204038227e-06 0.800168907838)
(-3.69194317819e-05 -9.36812989732e-06 0.800169801546)
(-5.3630896535e-05 -9.36830199993e-06 0.800174223322)
(-8.26350613905e-05 -9.32200754716e-06 0.800177493917)
(-9.901665829e-05 -9.29808476409e-06 0.800187850573)
(-0.00013283172439 -9.24535152448e-06 0.800194145525)
(-0.000148481114656 -9.19505600461e-06 0.800214032692)
(-0.000189559297011 -9.13642279941e-06 0.800224569859)
(-0.00020357228319 -9.05059038576e-06 0.800261043172)
(-0.000251903236499 -8.97124143004e-06 0.800277553417)
(-0.000263292907555 -8.8230614122e-06 0.800340814329)
(-0.000306240506501 -8.64188146682e-06 0.800354931057)
(-0.000317260116515 -8.03341144251e-06 0.800419108619)
(-0.000302652891415 -5.15263063927e-06 0.800222382102)
(-0.000375932971457 7.21769520291e-08 0.797731835343)
(-1.01999958695e-05 -3.60233461676e-05 0.800169939743)
(-3.69022029782e-05 -3.59657965169e-05 0.800170829136)
(-5.35988535074e-05 -3.59569566673e-05 0.800175258887)
(-8.25833125002e-05 -3.58741102992e-05 0.800178530866)
(-9.89545249744e-05 -3.58265710361e-05 0.800188896833)
(-0.00013274616802 -3.57398150152e-05 0.800195199086)
(-0.000148386085972 -3.56585827612e-05 0.800215093069)
(-0.000189430719788 -3.55961848484e-05 0.800225641644)
(-0.000203423408203 -3.54999997531e-05 0.800262114355)
(-0.000251701576238 -3.5489366532e-05 0.800278633519)
(-0.000263038730619 -3.54409777798e-05 0.800341880724)
(-0.00030589706746 -3.55932208439e-05 0.800355981502)
(-0.000316820573418 -3.62537353955e-05 0.80042004313)
(-0.000302105127816 -4.01467948939e-05 0.800222709251)
(-0.00037557712263 -4.61927470844e-05 0.797730996998)
(-1.01708442952e-05 -5.2928498141e-05 0.800174342485)
(-3.68530432321e-05 -5.28199738793e-05 0.80017524755)
(-5.35391973775e-05 -5.2811385823e-05 0.800179672326)
(-8.25046452757e-05 -5.26631204891e-05 0.800182961446)
(-9.88823906827e-05 -5.2587794426e-05 0.800193321084)
(-0.000132664099188 -5.24317210042e-05 0.80019963975)
(-0.000148338488628 -5.22824066901e-05 0.800219523815)
(-0.000189403115759 -5.21485461707e-05 0.800230090619)
(-0.000203475125323 -5.19167819573e-05 0.800266550454)
(-0.000251852556251 -5.18064479238e-05 0.80028309405)
(-0.000263330220779 -5.14885092754e-05 0.800346348785)
(-0.000306449827893 -5.13194838646e-05 0.800360516607)
(-0.000317583412333 -5.07011597241e-05 0.800424851911)
(-0.000303235865855 -4.83266833206e-05 0.80022889843)
(-0.000376248232345 -4.27807750012e-05 0.79773978983)
(-1.01439502166e-05 -8.18483250985e-05 0.80017771713)
(-3.67851061712e-05 -8.17190953374e-05 0.800178628946)
(-5.34420013425e-05 -8.16992725615e-05 0.800183063285)
(-8.23597019054e-05 -8.15102837809e-05 0.800186371023)
(-9.87231950174e-05 -8.14038567861e-05 0.800196741907)
(-0.000132441342994 -8.12004301061e-05 0.800203090903)
(-0.000148104441056 -8.09932925159e-05 0.800222979771)
(-0.000189069426954 -8.08316976564e-05 0.80023358688)
(-0.000203100087103 -8.05232331466e-05 0.800270031251)
(-0.000251309991482 -8.04541675267e-05 0.800286611092)
(-0.000262628703125 -8.01167415052e-05 0.800349817422)
(-0.000305477589266 -8.02685991048e-05 0.800363943564)
(-0.000316297581234 -8.09895032012e-05 0.800427888657)
(-0.000301619130997 -8.65744541113e-05 0.800229888178)
(-0.000375141615031 -9.46609518385e-05 0.79773683277)
(-1.00968127879e-05 -9.84229399596e-05 0.800188060416)
(-3.67040253156e-05 -9.82672477146e-05 0.800188988965)
(-5.33304093918e-05 -9.82528210976e-05 0.800193418597)
(-8.22092329052e-05 -9.80275754696e-05 0.80019674462)
(-9.85726169297e-05 -9.79167240091e-05 0.800207101179)
(-0.000132254138883 -9.7682380055e-05 0.800213466753)
(-0.000147971403791 -9.74424522133e-05 0.800233321967)
(-0.00018893855892 -9.72711036007e-05 0.800243946846)
(-0.000203119768272 -9.68678016986e-05 0.800280332911)
(-0.000251470853543 -9.68012062221e-05 0.80029693928)
(-0.000263046486749 -9.6235054562e-05 0.80036011929)
(-0.000306426208917 -9.61780486858e-05 0.800374366765)
(-0.000317676147742 -9.54219109013e-05 0.800438880425)
(-0.000303826872051 -9.33290034241e-05 0.800244070264)
(-0.000376445093566 -8.6359189799e-05 0.797757189807)
(-1.00507559606e-05 -0.000132183869025 0.800194422699)
(-3.66149629286e-05 -0.000132007618991 0.800195367969)
(-5.32022646425e-05 -0.00013198711952 0.800199806984)
(-8.20235333637e-05 -0.000131706033106 0.800203167724)
(-9.837800577e-05 -0.000131563093004 0.800213535062)
(-0.000131967683458 -0.000131246238415 0.800219956688)
(-0.000147695022934 -0.000130907598773 0.800239809951)