/*--------------------------------*- C++ -*----------------------------------*\
| =========                 |                                                 |
| \\      /  F ield         | OpenFOAM: The Open Source CFD Toolbox           |
|  \\    /   O peration     | Version:  2406                                  |
|   \\  /    A nd           | Website:  www.openfoam.com                      |
|    \\/     M anipulation  |                                                 |
\*---------------------------------------------------------------------------*/
FoamFile
{
    version     2.0;
    format      ascii;
    arch        "LSB;label=32;scalar=64";
    class       volVectorField;
    location    "0.01";
    object      U_0;
}
// * * * * * * * * * * * * * * * * * * * * * * * * * * * * * * * * * * * * * //

dimensions      [0 1 -1 0 0 0 0];

internalField   nonuniform List<vector> 
29768
(
(-6.79967250251e-06 -6.24049456995e-06 0.800028501405)
(-2.8662550286e-05 -6.2308220029e-06 0.800028848395)
(-3.99191115777e-05 -6.22699383987e-06 0.800030387824)
(-6.5500570646e-05 -6.21250836979e-06 0.800031452014)
(-7.64960481957e-05 -6.19588570556e-06 0.800035490623)
(-0.000111472028948 -6.17905169676e-06 0.800037350062)
(-0.000121570117664 -6.14451258546e-06 0.800046622823)
(-0.0001770744396 -6.12466709368e-06 0.800049186177)
(-0.000184196376381 -6.06472561177e-06 0.800070973452)
(-0.000285260497752 -6.04967500746e-06 0.800074038651)
(-0.00028264808993 -5.91416202214e-06 0.800128524398)
(-0.000490170992815 -5.80300518721e-06 0.800132180034)
(-0.000452521431292 -5.25408106405e-06 0.800299959842)
(-0.000907963094172 -2.67314839657e-06 0.800102081189)
(-0.000500338118618 1.5578361576e-06 0.798945054024)
(-6.80028763298e-06 -2.80766170037e-05 0.80002884514)
(-2.86544651636e-05 -2.80538758029e-05 0.800029190941)
(-3.99063084796e-05 -2.80383543903e-05 0.800030731442)
(-6.54762180973e-05 -2.80029477937e-05 0.80003179505)
(-7.64687203818e-05 -2.79586076203e-05 0.80003583422)
(-0.000111427295869 -2.79242840432e-05 0.800037694077)
(-0.000121520947365 -2.78505330577e-05 0.800046965836)
(-0.000176997948659 -2.78382699579e-05 0.800049529788)
(-0.000184102626542 -2.77608317538e-05 0.800071317765)
(-0.000285119354946 -2.7852729739e-05 0.800074386737)
(-0.000282459645979 -2.77716027196e-05 0.800128868894)
(-0.000489897175312 -2.79915341468e-05 0.800132523686)
(-0.000452141344459 -2.84598858025e-05 0.800300255335)
(-0.000907461185811 -3.12131676648e-05 0.800102179597)
(-0.000499869992637 -4.85701444835e-05 0.798944631072)
(-6.78614685614e-06 -3.94064783189e-05 0.800030407037)
(-2.8624286466e-05 -3.93684560192e-05 0.800030752647)
(-3.98681927253e-05 -3.93478155067e-05 0.800032291997)
(-6.54208291513e-05 -3.92943354745e-05 0.800033355406)
(-7.64172007759e-05 -3.92277639155e-05 0.800037390949)
(-0.000111363012941 -3.91806536492e-05 0.800039250052)
(-0.000121481638526 -3.90542791599e-05 0.800048513145)
(-0.000176975305528 -3.90386948476e-05 0.800051073775)
(-0.00018413964232 -3.88616050712e-05 0.800072855422)
(-0.000285259767764 -3.89707251135e-05 0.800075913506)
(-0.000282733150968 -3.86429135813e-05 0.800130400975)
(-0.000490450526365 -3.87002181898e-05 0.800134095271)
(-0.000452919163972 -3.79900326137e-05 0.800301931424)
(-0.000908725028208 -3.50484152487e-05 0.800104333944)
(-0.000500857972104 -4.17553207968e-05 0.798949459361)
(-6.77702802863e-06 -6.49678699522e-05 0.800031473673)
(-2.85957888244e-05 -6.49160341455e-05 0.800031817224)
(-3.983218448e-05 -6.48812509362e-05 0.800033358363)
(-6.5356152978e-05 -6.47991447043e-05 0.800034422136)
(-7.6354763485e-05 -6.46928723852e-05 0.800038458177)
(-0.000111252490077 -6.4611561511e-05 0.800040321962)
(-0.00012137546543 -6.44053150774e-05 0.800049582114)
(-0.000176789944411 -6.43672880637e-05 0.800052151616)
(-0.000183922684581 -6.40779521006e-05 0.800073934555)
(-0.000284913647316 -6.4222487993e-05 0.800076954554)
(-0.00028225725358 -6.3801129126e-05 0.800131484722)
(-0.000489712840662 -6.41508040011e-05 0.800135193523)
(-0.00045184387436 -6.44902866806e-05 0.800302862221)
(-0.00090726552063 -6.81531581723e-05 0.800104560445)
(-0.000499410767141 -0.000101587880123 0.798947681173)
(-6.75065694687e-06 -7.60490409051e-05 0.800035527934)
(-2.85376566779e-05 -7.59883154075e-05 0.800035870658)
(-3.9751308198e-05 -7.59571117227e-05 0.800037409226)
(-6.52324450796e-05 -7.5870028779e-05 0.800038471955)
(-7.62293833856e-05 -7.57603792563e-05 0.800042498822)
(-0.000111074214524 -7.57014367345e-05 0.800044360782)
(-0.000121233795032 -7.54676943396e-05 0.800053597944)
(-0.000176628215905 -7.55161292379e-05 0.800056162528)
(-0.000183859690621 -7.51532699429e-05 0.800077912029)
(-0.000285006841319 -7.54704734775e-05 0.800080806149)
(-0.000282578263396 -7.48592033044e-05 0.800135403685)
(-0.000490597434642 -7.52872223405e-05 0.800139206884)
(-0.000453163232481 -7.41599084286e-05 0.800307086112)
(-0.000909779804802 -7.04235783559e-05 0.800109996495)
(-0.000501320536504 -8.69239946643e-05 0.798960084841)
(-6.73491087551e-06 -0.000111015884132 0.800037393057)
(-2.85040459667e-05 -0.000110937861335 0.800037734336)
(-3.97141707188e-05 -0.000110895343458 0.800039274201)
(-6.51596482921e-05 -0.000110761736543 0.800040340901)
(-7.61861689424e-05 -0.000110600946698 0.800044367381)
(-0.000110958733462 -0.000110472035659 0.800046246089)
(-0.00012118648503 -0.00011008225313 0.800055479588)
(-0.000176451455492 -0.000110047288851 0.800058084736)
(-0.000183741929554 -0.000109330725588 0.800079828501)
(-0.000284679750722 -0.000109548209539 0.800082708825)
(-0.000282141999088 -0.000108392252636 0.80013737184)
(-0.000489737926325 -0.000108988395507 0.800141280132)
(-0.000451726203002 -0.000108737895448 0.800308797823)
(-0.000907705809786 -0.000114581642824 0.800110109785)
(-0.000498841233607 -0.00016982754309 0.798955024887)
(-6.69164239731e-06 -0.000121200550778 0.800046675924)
(-2.84180937686e-05 -0.000121117151557 0.800047014871)
(-3.95765301781e-05 -0.000121096714673 0.80004854761)
(-6.49393065683e-05 -0.000120964502566 0.800049610206)
(-7.59407670755e-05 -0.000120836925313 0.800053614355)
(-0.000110555534482 -0.00012077220506 0.800055488451)
(-0.000120806977501 -0.000120402712934 0.800064664989)
(-0.000175854414778 -0.000120614210736 0.800067265256)
(-0.000183252905405 -0.000119864983125 0.800088882212)
(-0.000284117793334 -0.000120665768756 0.80009162849)
(-0.000281839153248 -0.000119409701037 0.800146198624)
(-0.000490110648581 -0.000120801638488 0.800150274798)
(-0.000452607261831 -0.000118494657395 0.800318026591)
(-0.000911024806305 -0.000113903330266 0.800121955798)
(-0.000500824866497 -0.000139222099038 0.798982596967)
(-6.67003416995e-06 -0.000176707277892 0.800049245869)
(-2.84027778995e-05 -0.000176598953308 0.800049583841)
(-3.95651287742e-05 -0.000176594908124 0.800051114903)
(-6.49035006627e-05 -0.000176386516707 0.800052185556)
(-7.59976058591e-05 -0.000176239184454 0.800056185926)
(-0.00011052666304 -0.000176048102404 0.800058100324)
(-0.000121028542694 -0.000175461631349 0.800067272737)
(-0.000175892429106 -0.000175492223338 0.800069992697)
(-0.000183717812754 -0.000173991450106 0.800091601852)
(-0.000284281542126 -0.000174511427997 0.800094628)
(-0.000282365375407 -0.000171564425385 0.800149170619)
(-0.000490156775 -0.000172922404897 0.800153653181)
(-0.000452189147169 -0.000170208074144 0.80032064243)
(-0.000910027676933 -0.000181224318188 0.800121321073)
(-0.000497938393929 -0.000267537542474 0.798969327985)
(-6.60296940942e-06 -0.000183910943726 0.800071039228)
(-2.83154986231e-05 -0.000183788509005 0.800071376823)
(-3.93797510285e-05 -0.000183839448516 0.800072903167)
(-6.46036331193e-05 -0.000183600326065 0.800073974304)
(-7.56267185666e-05 -0.000183547212058 0.800077942192)
(-0.000109800539007 -0.000183414414313 0.800079850245)
(-0.000120272657626 -0.000182932050821 0.800088896205)
(-0.000174384421236 -0.000183388082528 0.800091607876)
(-0.000182251633388 -0.000181926084889 0.800112862568)
(-0.000281717312697 -0.000183814041699 0.800115739009)
(-0.000279968135284 -0.000180836635849 0.800169698033)
(-0.000487399287867 -0.000184824063111 0.800174448578)
(-0.000449752298514 -0.000178761965196 0.800340502735)
(-0.000911417854296 -0.000175317252466 0.800147329506)
(-0.000494383975202 -0.000207964247666 0.799030266188)
(-6.58668356663e-06 -0.000284987151204 0.800074110683)
(-2.84047727333e-05 -0.000284821689872 0.800074450941)
(-3.94911680601e-05 -0.000284974121737 0.800075968078)
(-6.47484941828e-05 -0.00028461026878 0.800077000298)
(-7.59483638933e-05 -0.000284712411269 0.800080842743)
(-0.000110020377847 -0.000284374299438 0.800082736256)
(-0.000121078646254 -0.000283818395611 0.800091648714)
(-0.000174907719049 -0.000283976340809 0.800094640171)
(-0.000184144104141 -0.000281415853433 0.800115745748)
(-0.000283132730634 -0.000282828610998 0.800119875632)
(-0.000283638438212 -0.000275897928953 0.800173279446)
(-0.000491013855927 -0.000279767780735 0.800179346229)
(-0.000454746433243 -0.000268545903951 0.800344597631)
(-0.000918875758939 -0.000295101607219 0.80014451656)
(-0.000496809191836 -0.0004202881563 0.79899725257)
(-6.44386857538e-06 -0.000282450496822 0.800128600583)
(-2.83145124729e-05 -0.000282244109463 0.800128936617)
(-3.9155738732e-05 -0.000282523825146 0.800130459855)
(-6.43180733834e-05 -0.00028203432252 0.800131534442)
(-7.53303635537e-05 -0.000282358925835 0.800135445333)
(-0.000108856921916 -0.000281913621667 0.800137404281)
(-0.00011981765728 -0.0002816123194 0.800146224135)
(-0.000171955476513 -0.000282133491089 0.800149187742)
(-0.000181164116171 -0.000279736768383 0.800169709513)
(-0.000276199470757 -0.000283404702095 0.800173284043)
(-0.00027626766567 -0.000276033750227 0.80022524998)
(-0.000477464734506 -0.000286605118336 0.800231687595)
(-0.000438599470334 -0.000267332735549 0.800392403056)
(-0.000904253877412 -0.000276424661812 0.800205736136)
(-0.000454231432579 -0.000315224135893 0.79913350694)
(-6.33128348113e-06 -0.000489992919985 0.800132259516)
(-2.85321776241e-05 -0.000489707174615 0.800132593903)
(-3.92133744031e-05 -0.000490263428955 0.800134157336)
(-6.46672285112e-05 -0.00048951763337 0.800135245877)
(-7.57601871937e-05 -0.000490403418504 0.800139251734)
(-0.000109454077355 -0.000489539560899 0.800141315503)
(-0.00012121201671 -0.000489912135874 0.800150303715)
(-0.000173315233642 -0.000489956715825 0.800153673435)
(-0.000185153239193 -0.000487198508132 0.800174463585)
(-0.000280069763619 -0.000490813090509 0.800179353963)
(-0.00028683940925 -0.00047726236479 0.800231691127)
(-0.000490550622473 -0.000490349357102 0.800240388465)
(-0.000462596070892 -0.000452968257914 0.800398398788)
(-0.000954980426803 -0.00054053475625 0.800196306823)
(-0.000500166154905 -0.000659282389271 0.799054997991)
(-5.77741056336e-06 -0.000452412743735 0.800300039434)
(-2.89956903539e-05 -0.000452029286351 0.80030032459)
(-3.84979932157e-05 -0.000452803037251 0.800301993453)
(-6.50022189963e-05 -0.000451726023361 0.800302913651)
(-7.46279145584e-05 -0.000453040623308 0.800307130682)
(-0.000109199818541 -0.000451603484625 0.800308832149)
(-0.000118900636591 -0.000452479541209 0.800318054755)
(-0.00017059796211 -0.000452062831728 0.800320660912)
(-0.000179087336724 -0.000449622951881 0.800340513973)
(-0.000268847255116 -0.000454617049949 0.800344603519)
(-0.000267564817287 -0.000438465905509 0.800392404909)
(-0.000453170356971 -0.000462463683513 0.800398396535)
(-0.000390308086424 -0.000390175603751 0.800539544766)
(-0.000861282244928 -0.000462544822622 0.800357121095)
(-0.000234630574249 -0.000531959976212 0.799356254875)
(-3.18790212422e-06 -0.000907874784889 0.800102169536)
(-3.17469353974e-05 -0.000907375227489 0.800102254957)
(-3.55469792556e-05 -0.00090863205579 0.800104402722)
(-6.86650324089e-05 -0.000907176066004 0.800104615968)
(-7.08821649696e-05 -0.000909683434632 0.8001100458)
(-0.000115044812632 -0.00090761378445 0.800110146296)
(-0.000114300324999 -0.000910926307696 0.800121986643)
(-0.000181615859394 -0.000909933849169 0.800121340442)
(-0.000175634525684 -0.00091131832914 0.800147343544)
(-0.0002954045765 -0.000918779514419 0.800144521828)
(-0.000276647491105 -0.000904152226207 0.800205737345)
(-0.000540734976257 -0.000954880430443 0.800196302006)
(-0.000462662043133 -0.00086117824342 0.800357116118)
(-0.00121461916614 -0.00121452479352 0.800185953831)
(-0.000556882730831 -0.000926868404725 0.799146171311)
(9.07606965952e-07 -0.000500306922288 0.798945216425)
(-4.92519771616e-05 -0.000499842492108 0.798944763746)
(-4.2382337553e-05 -0.000500825397386 0.798949588315)
(-0.000102243012121 -0.000499382152635 0.798947781103)
(-8.74987294055e-05 -0.000501287232235 0.798960180172)
(-0.000170421874519 -0.000498811614088 0.798955093557)
(-0.000139718275151 -0.000500790938287 0.798982660614)
(-0.000268041658352 -0.0004979079884 0.798969368678)
(-0.000208359635199 -0.000494350640811 0.799030301948)
(-0.000420679836811 -0.000496778453689 0.798997270402)
(-0.000315500549804 -0.000454198139045 0.799133519973)
(-0.000659543662478 -0.000500135648794 0.799054998383)
(-0.000532103284158 -0.000234598448565 0.799356252483)
(-0.000926989116455 -0.000556858415234 0.799146165259)
(-0.00117719259636 -0.00117717366911 0.796652787472)
(-9.53679422942e-06 -8.73527486892e-06 0.800080437937)
(-3.57564993923e-05 -8.72478858217e-06 0.800080720196)
(-5.16372113975e-05 -8.71834628123e-06 0.80008341849)
(-8.04894184551e-05 -8.69911330384e-06 0.800084882732)
(-9.63000609275e-05 -8.67726101268e-06 0.800091656554)
(-0.000130998925748 -8.65114045712e-06 0.800094735728)
(-0.000146722753473 -8.60788497613e-06 0.800109875591)
(-0.000191422998106 -8.57305161403e-06 0.800115261569)
(-0.0002072421342 -8.49612518537e-06 0.800149898674)
(-0.00026652412142 -8.4184450685e-06 0.800157093651)
(-0.000283197637514 -8.30619584751e-06 0.800239278733)
(-0.000355743488031 -8.11833906191e-06 0.800233229768)
(-0.000369056780504 -7.50473315904e-06 0.800393321164)
(-0.000386985407794 -4.51774881142e-06 0.800087948625)
(-0.000393451591876 6.78250766578e-07 0.798765945478)
(-9.53624712741e-06 -3.49387412907e-05 0.800080898794)
(-3.57445521935e-05 -3.49116844241e-05 0.800081185177)
(-5.16169724111e-05 -3.48899168432e-05 0.800083882518)
(-8.04553309096e-05 -3.48430421825e-05 0.800085355601)
(-9.62588286207e-05 -3.47900476967e-05 0.800092131542)
(-0.000130938080413 -3.47386586252e-05 0.800095223397)
(-0.000146653160431 -3.465547663e-05 0.800110367907)
(-0.000191323255086 -3.46220382394e-05 0.800115770368)
(-0.000207122865164 -3.45241826377e-05 0.800150407253)
(-0.000266355326296 -3.44810404463e-05 0.800157613915)
(-0.000282973803329 -3.45138485374e-05 0.800239799686)
(-0.000355434163583 -3.46139861786e-05 0.800233751907)
(-0.000368646191653 -3.52584142347e-05 0.800393774561)
(-0.000386483035703 -3.87496691821e-05 0.800087988398)
(-0.000393102637295 -4.5194433286e-05 0.798765204666)
(-9.51718480435e-06 -5.08989645988e-05 0.800083476163)
(-3.5707675955e-05 -5.08536230146e-05 0.800083775544)
(-5.15685478091e-05 -5.08218398084e-05 0.800086465384)
(-8.03895178825e-05 -5.07474166719e-05 0.800087950726)
(-9.61958764026e-05 -5.06643072824e-05 0.800094717333)
(-0.000130865561789 -5.05818787512e-05 0.800097820111)
(-0.000146609242656 -5.04328372123e-05 0.800112953986)
(-0.000191302157642 -5.03646298279e-05 0.800118367329)
(-0.000207175797541 -5.01337705232e-05 0.800152982225)
(-0.000266513694798 -4.99920842994e-05 0.800160198848)
(-0.000283263700321 -4.98156526178e-05 0.800242370286)
(-0.000355996389524 -4.95850080445e-05 0.800236349443)
(-0.000369395140728 -4.89240723285e-05 0.800396494207)
(-0.000387654818715 -4.59080110932e-05 0.800091409583)
(-0.000394040845484 -4.07438001273e-05 0.798770286676)
(-9.50157577872e-06 -7.97462074139e-05 0.800085056064)
(-3.56674526195e-05 -7.96841786508e-05 0.800085378613)
(-5.15107689456e-05 -7.96366317397e-05 0.800088061986)
(-8.0297795252e-05 -7.95270740689e-05 0.800089580434)
(-9.60936136087e-05 -7.94054361576e-05 0.800096347388)
(-0.000130708346139 -7.92803305269e-05 0.80009949244)
(-0.000146440434538 -7.90614257185e-05 0.800114633029)
(-0.000191041908472 -7.89632930733e-05 0.80012010073)
(-0.00020687394371 -7.86362551694e-05 0.800154713295)
(-0.000266052882612 -7.84952400681e-05 0.800162031726)
(-0.000282661015283 -7.83419156957e-05 0.800244145422)
(-0.000355133307055 -7.83684385228e-05 0.800238143011)
(-0.000368213827782 -7.90159641638e-05 0.800398039069)
(-0.000386195237692 -8.34836939021e-05 0.800091530271)
(-0.000392957861154 -9.22472930595e-05 0.798767581476)
(-9.46589114959e-06 -9.56571616612e-05 0.800091749964)
(-3.55981373934e-05 -9.55816108972e-05 0.800092087354)
(-5.14114548155e-05 -9.55361252993e-05 0.800094758734)
(-8.01583285209e-05 -9.54086412834e-05 0.800096291759)
(-9.59494183538e-05 -9.52800978535e-05 0.800103038139)
(-0.000130523212672 -9.51491295993e-05 0.800106196425)
(-0.000146296702836 -9.48943157722e-05 0.800121304355)
(-0.000190899157306 -9.48221978796e-05 0.800126782515)
(-0.000206852343062 -9.43931218764e-05 0.800161334536)
(-0.000266184969218 -9.43041842641e-05 0.800168762791)
(-0.000283069556395 -9.39323030601e-05 0.800250695686)
(-0.000356074248031 -9.37605195402e-05 0.800244732736)
(-0.000369530030683 -9.28500974627e-05 0.800404896358)
(-0.000388501764537 -8.92345871433e-05 0.800100261706)
(-0.000394913906826 -8.27339735716e-05 0.798780724551)
(-9.43820707501e-06 -0.000130363202347 0.800094892681)
(-3.55462135443e-05 -0.000130267833025 0.800095262526)
(-5.13374785746e-05 -0.000130213441555 0.800097926413)
(-8.00414913267e-05 -0.000130031841142 0.800099509816)
(-9.58341072048e-05 -0.00012986308169 0.800106256415)
(-0.000130324064227 -0.000129649759593 0.80010948923)
(-0.000146118222495 -0.000129277591146 0.800124603395)
(-0.000190569049252 -0.000129106378229 0.800130196838)
(-0.000206510400728 -0.000128427966421 0.800164751959)
(-0.000265578480617 -0.000128267548776 0.800172434495)
(-0.000282299771733 -0.000127555663485 0.800254251423)
(-0.000354888017404 -0.000127556539776 0.800248401132)
(-0.000367785987945 -0.000127891274211 0.800407984719)
(-0.000386332217573 -0.000133744113998 0.800100200164)
(-0.000393024528607 -0.000145657907408 0.798773873855)
(-9.38137492169e-06 -0.000146193585253 0.800109984056)
(-3.54471230038e-05 -0.00014608774702 0.800110369523)
(-5.11736946096e-05 -0.00014605911685 0.800113018739)
(-7.98062877539e-05 -0.000145862498701 0.800114619355)
(-9.55658261839e-05 -0.000145731497364 0.800121331669)
(-0.00012993770899 -0.000145534490243 0.800124579506)
(-0.00014575580702 -0.000145182403967 0.800139613006)
(-0.000190075445295 -0.000145127489074 0.80014521097)
(-0.000206132861145 -0.000144406376606 0.800179601177)
(-0.00026524648384 -0.000144563096741 0.80018740084)
(-0.000282310935807 -0.000143602731735 0.800268788638)
(-0.000355605090055 -0.000143758577708 0.800262966131)
(-0.000369027061853 -0.000142079542995 0.800422939811)
(-0.000389481515485 -0.000137358903185 0.800119583673)
(-0.000395979152642 -0.000127840202166 0.79880341086)
(-9.3416566774e-06 -0.000190912355922 0.800115398764)
(-3.54085091877e-05 -0.000190778689347 0.800115819361)
(-5.11076050619e-05 -0.000190772486144 0.800118464504)
(-7.97092894872e-05 -0.000190487173076 0.800120129848)
(-9.55013103266e-05 -0.000190356929131 0.800126842399)
(-0.000129772406474 -0.000190011026102 0.800130209332)
(-0.000145711162234 -0.000189527637417 0.800145240832)
(-0.000189820334718 -0.000189264644116 0.800151078347)
(-0.000206046045031 -0.000188073520599 0.800185457571)
(-0.000264797625213 -0.000187988186315 0.800193715297)
(-0.000281836319873 -0.00018598962667 0.800275060518)
(-0.0003546508284 -0.000186085871791 0.800269779705)
(-0.000367291745787 -0.000184994312609 0.800428526429)
(-0.000387462047358 -0.000192538099626 0.800118612721)
(-0.000393309240552 -0.00020704970885 0.798786778621)
(-9.25247840477e-06 -0.000206835039387 0.800150008797)
(-3.52964271019e-05 -0.000206684536877 0.800150438023)
(-5.08641016773e-05 -0.000206748094496 0.800153056737)
(-7.93682092507e-05 -0.000206421897781 0.800154727295)
(-9.5061016857e-05 -0.00020640832605 0.800161376968)
(-0.000129082194345 -0.000206049652032 0.800164752842)
(-0.000144981818276 -0.00020567796747 0.800179618591)
(-0.000188621120127 -0.000205581502098 0.800185449102)
(-0.000204877833958 -0.000204417545739 0.800219413562)
(-0.00026310460705 -0.000204971242372 0.800227784221)
(-0.000280304716463 -0.000202655909841 0.80030796503)
(-0.000353431578133 -0.000203682122528 0.800302834802)
(-0.000366162564937 -0.000199737292894 0.800462376869)
(-0.000390227145407 -0.000193874833299 0.80016259052)
(-0.000396350586972 -0.000179298702525 0.798853196452)
(-9.16686578612e-06 -0.00026614470846 0.800157213131)
(-3.52445138543e-05 -0.000265949402373 0.800157668358)
(-5.0718989154e-05 -0.00026611675865 0.800160285926)
(-7.92227482712e-05 -0.000265636102762 0.800162067397)
(-9.49729259685e-05 -0.000265774816478 0.800168820116)
(-0.000128921453457 -0.000265155537661 0.800172455188)
(-0.00014514214567 -0.00026482840175 0.800187433847)
(-0.00018853764019 -0.000264373079637 0.800193723946)
(-0.000205435418165 -0.000262683409075 0.800227798843)
(-0.000263245219638 -0.000262822535321 0.800236812427)
(-0.000281055936518 -0.000258474579693 0.800317506875)
(-0.000353754723822 -0.000259213907377 0.800314351199)
(-0.00036644818464 -0.000253370333406 0.800470685128)
(-0.000391012103466 -0.000262143409887 0.800158600044)
(-0.000393581281669 -0.000273425200662 0.798813463008)
(-9.0469334289e-06 -0.000282914890159 0.800239385145)
(-3.52682013053e-05 -0.000282670842593 0.800239847427)
(-5.05348309268e-05 -0.000282964030448 0.800242447448)
(-7.90607602801e-05 -0.000282345671848 0.800244176129)
(-9.45943183426e-05 -0.000282755826135 0.800250745486)
(-0.000128202282363 -0.000281975701764 0.800254267657)
(-0.000144176588754 -0.000281987347067 0.800268815924)
(-0.000186534091701 -0.000281507093247 0.800275065636)
(-0.000203117222401 -0.000279974920877 0.800307975832)
(-0.000258895787913 -0.000280724442568 0.800317504509)
(-0.000276347457053 -0.000276015234742 0.800394610724)
(-0.000346836234293 -0.000278481276457 0.80039208548)
(-0.000358362297142 -0.000267525580606 0.800548661939)
(-0.000388729982177 -0.000263056238842 0.800265382443)
(-0.000391848127152 -0.000241062214385 0.798965245468)
(-8.85259143156e-06 -0.000355493679016 0.800233335568)
(-3.53612776401e-05 -0.000355171050515 0.800233807347)
(-5.02999338695e-05 -0.000355733663838 0.800236428708)
(-7.90824716847e-05 -0.000354861366259 0.800238181403)
(-9.44203318406e-05 -0.000355801543008 0.800244786724)
(-0.000128200449428 -0.000354610355454 0.800248424647)
(-0.000144331607858 -0.00035532593571 0.800262998807)
(-0.000186628770713 -0.000354370213847 0.800269791645)
(-0.000204143096471 -0.00035314845059 0.800302852083)
(-0.000259634350945 -0.000353472565321 0.800314355161)
(-0.000278812134229 -0.000346551659236 0.800392091521)
(-0.000349178585126 -0.000348895323398 0.800396261651)
(-0.000362792038277 -0.000330635548275 0.800549694966)
(-0.000398960201828 -0.000341519128983 0.800247661679)
(-0.00039473712416 -0.000323490345071 0.798877172485)
(-8.23540129352e-06 -0.000368899007002 0.80039341974)
(-3.60029213947e-05 -0.000368484126277 0.800393823669)
(-4.96352901584e-05 -0.000369226897639 0.800396567828)
(-7.97279384149e-05 -0.000368043158392 0.80039807233)
(-9.35067621885e-05 -0.00036935288265 0.800404946204)
(-0.000128534327839 -0.000367608493667 0.800408004223)
(-0.000142650505472 -0.000368843463038 0.800422969531)
(-0.000185537816504 -0.000367108998186 0.800428535515)
(-0.000200197982643 -0.000365972479633 0.800462394331)
(-0.000253792442336 -0.000366261410882 0.800470687075)
(-0.000267857471647 -0.00035816984618 0.80054866639)
(-0.000330922210591 -0.00036260093854 0.800549692849)
(-0.000333865652975 -0.000333671123236 0.800720760742)
(-0.000370442671174 -0.000342270312996 0.800512714455)
(-0.000352120606269 -0.000316868942717 0.799217604954)
(-5.25723526843e-06 -0.00038686768867 0.80008802649)
(-3.95121353035e-05 -0.000386367985583 0.800088000669)
(-4.66267978288e-05 -0.000387530571074 0.800091466975)
(-8.42157222649e-05 -0.000386074905405 0.800091534719)
(-8.98974742451e-05 -0.00038837255871 0.800100299618)
(-0.000134407643709 -0.000386207904995 0.800100198727)
(-0.00013793427211 -0.000389349181018 0.800119605216)
(-0.000193100743222 -0.000387334520474 0.800118607632)
(-0.000194336111073 -0.000390092684858 0.800162600302)
(-0.000262578711346 -0.000390881471091 0.800158593643)
(-0.000263382422326 -0.000388591663199 0.800265384892)
(-0.000341808718816 -0.000398822664424 0.800247656453)
(-0.000342445097939 -0.000370296709174 0.800512714702)
(-0.000409633862879 -0.000409501733391 0.800223678171)
(-0.000387547419635 -0.000250565845315 0.798976337725)
(-6.97646351448e-08 -0.000393443330399 0.79876602374)
(-4.59777588202e-05 -0.000393096950811 0.798765194094)
(-4.14679392861e-05 -0.000394027457858 0.798770344536)
(-9.30024446539e-05 -0.000392946553983 0.79876756724)
(-8.33997167684e-05 -0.000394895197554 0.798780762427)
(-0.000146344533175 -0.000393007838115 0.798773857933)
(-0.00012841642986 -0.000395955963978 0.798803432032)
(-0.000207633578499 -0.000393287839896 0.798786762841)
(-0.000179759039255 -0.00039632320964 0.798853205252)
(-0.000273878728627 -0.000393556104342 0.798813448935)
(-0.000241385299417 -0.000391818705206 0.798965246693)
(-0.000323792715894 -0.000394709387217 0.798877162264)
(-0.000317036186405 -0.000352089247389 0.799217603032)
(-0.000250698847773 -0.000387524048322 0.798976332148)
(-0.000347577402288 -0.000347561606246 0.796367351847)
(-1.01297927617e-05 -9.33818438266e-06 0.800168159076)
(-3.67397466951e-05 -9.30451265841e-06 0.80016904413)
(-5.33353520559e-05 -9.30470822626e-06 0.800173451891)
(-8.22244474315e-05 -9.25873559852e-06 0.800176695455)
(-9.84794393785e-05 -9.23498878337e-06 0.800187016737)
(-0.000132169510532 -9.18260706507e-06 0.800193257163)
(-0.000147672941894 -9.13261276369e-06 0.800213074751)
(-0.000188612594323 -9.07427179308e-06 0.800223509735)
(-0.000202453685353 -8.98887328301e-06 0.800259854411)
(-0.000250634200999 -8.90949475206e-06 0.800276184546)
(-0.000261828539286 -8.7622264466e-06 0.800339245303)
(-0.000304644783747 -8.58169624207e-06 0.800353194442)
(-0.00031549664116 -7.975487363e-06 0.800417474674)
(-0.000300869437049 -5.10738625154e-06 0.800221877407)
(-0.000374291970996 6.82156568824e-08 0.797741496192)
(-1.01305180801e-05 -3.58501271883e-05 0.800169183328)
(-3.67225537601e-05 -3.5792912734e-05 0.800170064223)
(-5.33034574523e-05 -3.57841991995e-05 0.800174479802)
(-8.21729447166e-05 -3.57018893725e-05 0.800177724874)
(-9.84176359712e-05 -3.56547230775e-05 0.800188055334)
(-0.000132084375286 -3.5568603899e-05 0.800194303137)
(-0.000147578331186 -3.54879621386e-05 0.80021412745)
(-0.00018848453373 -3.54260377065e-05 0.800224573898)
(-0.000202305020194 -3.5330687604e-05 0.800260917959)
(-0.000250433208265 -3.53193260864e-05 0.800277257058)
(-0.000261575453228 -3.52727214104e-05 0.800340303858)
(-0.00030430216432 -3.5424724415e-05 0.800354237182)
(-0.000315058047048 -3.6081669593e-05 0.800418401668)
(-0.000300322888434 -3.99547917526e-05 0.800222199424)
(-0.000373937901414 -4.59399979818e-05 0.797740662621)
(-1.01016453886e-05 -5.2638015441e-05 0.800173570519)
(-3.66738196542e-05 -5.25301828224e-05 0.800174467038)
(-5.32443156652e-05 -5.25217628014e-05 0.800178877654)
(-8.20949401166e-05 -5.23744890179e-05 0.800182139817)
(-9.83461792276e-05 -5.2299771094e-05 0.800192463971)
(-0.000132003109085 -5.21448057733e-05 0.80019872818)
(-0.000147531371694 -5.19965330423e-05 0.800218542628)
(-0.000188457666759 -5.18634789998e-05 0.800229007433)
(-0.000202356516614 -5.16333232451e-05 0.800265338776)
(-0.000250584748129 -5.15218892148e-05 0.800281702647)
(-0.000261868243609 -5.12074838144e-05 0.800344756325)
(-0.000304854540759 -5.10392804266e-05 0.800358756877)
(-0.0003158201522 -5.04217688827e-05 0.800423193746)
(-0.000301451107127 -4.80531634123e-05 0.800228366623)
(-0.000374605416346 -4.25520084637e-05 0.797749411405)
(-1.00748923626e-05 -8.14434685998e-05 0.800176918989)
(-3.66063167213e-05 -8.13149925613e-05 0.800177822453)
(-5.31477648789e-05 -8.12954623719e-05 0.800182242415)
(-8.19509330134e-05 -8.11076651123e-05 0.800185523342)
(-9.81880193274e-05 -8.1002099632e-05 0.800195858583)
(-0.000131781695662 -8.08001166654e-05 0.800202153206)
(-0.000147298520191 -8.05944538069e-05 0.800221972381)
(-0.000188125563005 -8.04341064253e-05 0.800232477607)
(-0.000201981989992 -8.01278885429e-05 0.800268793545)
(-0.00025004412096 -8.00584549605e-05 0.800285193935)
(-0.000261169857777 -7.97245807494e-05 0.800348198391)
(-0.000303884436795 -7.98767844645e-05 0.800362157754)
(-0.000314536905965 -8.05926409009e-05 0.800426205034)
(-0.00029983748994 -8.61495191048e-05 0.800229338655)
(-0.000373504223551 -9.41550844944e-05 0.797746469334)
(-1.0028129237e-05 -9.78901481812e-05 0.800187225656)
(-3.65258487798e-05 -9.77353936941e-05 0.800188145844)
(-5.30370126188e-05 -9.77213072059e-05 0.80019256106)
(-8.1801580807e-05 -9.74974935811e-05 0.800195860271)
(-9.80387079382e-05 -9.73877015904e-05 0.8002061812)
(-0.000131596062123 -9.71551245861e-05 0.800212492479)
(-0.000147166986091 -9.69171485053e-05 0.800232278101)
(-0.000187996487011 -9.67475595271e-05 0.80024280147)
(-0.000202002833268 -9.63471229485e-05 0.800279059223)
(-0.000250206689663 -9.62817373601e-05 0.800295486869)
(-0.000261589916515 -9.57187251649e-05 0.800358464591)
(-0.000304833212711 -9.56632037531e-05 0.800372545666)
(-0.000315915074417 -9.49056826128e-05 0.800437159113)
(-0.000302041483298 -9.28107550207e-05 0.800243471744)
(-0.000374800912294 -8.58861236058e-05 0.797766726713)
(-9.98234827217e-06 -0.000131526442878 0.800193534097)
(-3.6437453779e-05 -0.000131351174852 0.800194471172)
(-5.29098032983e-05 -0.000131331133951 0.800198895591)
(-8.16172587747e-05 -0.000131051708924 0.80020222964)
(-9.78456565295e-05 -0.000130910124186 0.800212561267)
(-0.000131311753027 -0.000130595540488 0.80021892866)
(-0.000146892785291 -0.00013025932501 0.800238712344)