# Force             
# CofR              : (0.000000000000e+00 0.000000000000e+00 0.000000000000e+00)
#
# Time              	total_x total_y total_z	pressure_x pressure_y pressure_z	viscous_x viscous_y viscous_z
1e-05                2.264927152942e-02 -1.701856029646e-02 1.581652223700e-01 2.266339897442e-02 -1.702811761215e-02 1.580728709848e-01 -1.412744499959e-05 9.557315688515e-06 9.235138522034e-05
