# Moment            
# CofR              : (0.000000000000e+00 0.000000000000e+00 0.000000000000e+00)
#
# Time              	total_x total_y total_z	pressure_x pressure_y pressure_z	viscous_x viscous_y viscous_z
1e-05                -2.456584535615e-04 1.233050018872e-03 1.829731953150e-04 -2.455131159435e-04 1.232683166438e-03 1.830954231084e-04 -1.453376179362e-07 3.668524348697e-07 -1.222277934078e-07
2e-05                1.256474798849e-04 -6.300885277890e-04 -9.378630545436e-05 1.257673172973e-04 -6.303535646909e-04 -9.364960827996e-05 -1.198374124596e-07 2.650369019167e-07 -1.366971743978e-07
3e-05                -3.203521094188e-06 1.839380552574e-05 3.008128934410e-06 -3.100995042303e-06 1.819211823241e-05 3.151704216762e-06 -1.025260518856e-07 2.016872933337e-07 -1.435752823525e-07
4e-05                -8.334688118962e-07 5.341846975407e-06 9.299619957190e-07 -7.436653868394e-07 5.174521749694e-06 1.074447756751e-06 -8.980342505680e-08 1.673252257128e-07 -1.444857610319e-07
5e-05                -8.628723708023e-07 5.455347964060e-06 9.648972102445e-07 -7.823524700580e-07 5.306363701789e-06 1.107487176577e-06 -8.051990074427e-08 1.489842622709e-07 -1.425899663328e-07
6e-05                -8.382798753382e-07 5.298824924171e-06 9.513102239695e-07 -7.646968314511e-07 5.161198960548e-06 1.090960371031e-06 -7.358304388714e-08 1.376259636230e-07 -1.396501470612e-07
7e-05                -8.092112937858e-07 5.109283007189e-06 9.299452710121e-07 -7.410352303578e-07 4.980224826420e-06 1.066309906148e-06 -6.817606342792e-08 1.290581807684e-07 -1.363646351357e-07
8e-05                -7.825153785727e-07 4.941751088977e-06 9.107431949349e-07 -7.187537799965e-07 4.819960165068e-06 1.043746155892e-06 -6.376159857617e-08 1.217909239089e-07 -1.330029609568e-07
9e-05                -7.615526893039e-07 4.803709054722e-06 8.953932399500e-07 -7.015382238212e-07 4.688299641789e-06 1.025074100289e-06 -6.001446548273e-08 1.154094129333e-07 -1.296808603390e-07
0.0001               -7.440230669874e-07 4.689043470647e-06 8.831200969282e-07 -6.872723874599e-07 4.579250775583e-06 1.009576621358e-06 -5.675067952748e-08 1.097926950648e-07 -1.264565244301e-07
0.00011              -7.284024403985e-07 4.584543007650e-06 8.721071378225e-07 -6.745431390556e-07 4.479695132316e-06 9.954638550103e-07 -5.385930134292e-08 1.048478753336e-07 -1.233567171878e-07
0.00012              -7.141094358284e-07 4.490992173218e-06 8.622852581902e-07 -6.628358612388e-07 4.390507667369e-06 9.826827259197e-07 -5.127357458960e-08 1.004845058490e-07 -1.203974677295e-07
0.00013              -7.005178655920e-07 4.402420812004e-06 8.531680055112e-07 -6.515739572620e-07 4.305822624364e-06 9.707431969990e-07 -4.894390833000e-08 9.659818764012e-08 -1.175751914878e-07
0.00014              -6.879266057150e-07 4.320118391695e-06 8.445640357824e-07 -6.410929793153e-07 4.227012305889e-06 9.594496820639e-07 -4.683362639970e-08 9.310608580568e-08 -1.148856462814e-07
0.00015              -6.762776443012e-07 4.243338567584e-06 8.367890921160e-07 -6.313645527951e-07 4.153397608752e-06 9.491055472115e-07 -4.491309150608e-08 8.994095883195e-08 -1.123164550955e-07
0.00016              -6.668401804856e-07 4.176660823131e-06 8.299885915967e-07 -6.236810896864e-07 4.089609683397e-06 9.398507076202e-07 -4.315909079926e-08 8.705113973394e-08 -1.098621160235e-07
0.00017              -6.550838049209e-07 4.103058266957e-06 8.223549184683e-07 -6.135332345998e-07 4.018663524337e-06 9.298638486133e-07 -4.155057032112e-08 8.439474262018e-08 -1.075089301450e-07
0.00018              -6.470162228845e-07 4.043890263210e-06 8.163497707454e-07 -6.069438593922e-07 3.961946450141e-06 9.215991710802e-07 -4.007236349235e-08 8.194381306876e-08 -1.052494003348e-07
0.00019              -6.376217666380e-07 3.982006984721e-06 8.098535226615e-07 -5.989121497851e-07 3.902330768936e-06 9.129281060024e-07 -3.870961685297e-08 7.967621578416e-08 -1.030745833409e-07
0.0002               -6.288411578447e-07 3.923060688517e-06 8.038809656006e-07 -5.913921145264e-07 3.845488754318e-06 9.048507629026e-07 -3.744904331825e-08 7.757193419944e-08 -1.009697973021e-07
0.00021              -6.215304942109e-07 3.870482137934e-06 7.983486210673e-07 -5.852492956338e-07 3.794863911973e-06 8.972822292640e-07 -3.628119857705e-08 7.561822596100e-08 -9.893360819665e-08
0.00022              -6.140941377530e-07 3.819068696268e-06 7.929776223489e-07 -5.788973169979e-07 3.745267288060e-06 8.899364035422e-07 -3.519682075508e-08 7.380140820895e-08 -9.695878119330e-08
0.00023              -6.079178652715e-07 3.772457756878e-06 7.881791090176e-07 -5.737309398943e-07 3.700349762928e-06 8.832160885742e-07 -3.418692537718e-08 7.210799395037e-08 -9.503697955661e-08
0.00024              -6.020954053505e-07 3.728881863750e-06 7.836010438017e-07 -5.688500799695e-07 3.658352782737e-06 8.767657749780e-07 -3.324532538100e-08 7.052908101303e-08 -9.316473117631e-08
0.00025              -5.963253679840e-07 3.685770405987e-06 7.789422760574e-07 -5.639590356707e-07 3.616713835630e-06 8.702816446985e-07 -3.236633231328e-08 6.905657035694e-08 -9.133936864112e-08
0.00026              -5.921343052981e-07 3.648951380507e-06 7.751392654999e-07 -5.605905523752e-07 3.581271991448e-06 8.646944285897e-07 -3.154375292293e-08 6.767938905856e-08 -8.955516308978e-08
0.00027              -5.860940897888e-07 3.607004507695e-06 7.704718965034e-07 -5.553217192845e-07 3.540613964979e-06 8.582842947148e-07 -3.077237050425e-08 6.639054271529e-08 -8.781239821136e-08
0.00028              -5.824812851767e-07 3.573399827189e-06 7.668461673838e-07 -5.524336608755e-07 3.508217894115e-06 8.529548810095e-07 -3.004762430116e-08 6.518193307375e-08 -8.610871362574e-08
0.00029              -5.786612643160e-07 3.540834539600e-06 7.631249193951e-07 -5.492945738832e-07 3.476785511748e-06 8.475743357639e-07 -2.936669043276e-08 6.404902785226e-08 -8.444941636874e-08
0.0003               -5.735720872845e-07 3.504056338906e-06 7.590061816086e-07 -5.448483886262e-07 3.441074645813e-06 8.418326212553e-07 -2.872369865833e-08 6.298169309247e-08 -8.282643964669e-08
0.00031              -5.726694980345e-07 3.482220854531e-06 7.565640047728e-07 -5.445532799473e-07 3.420245413009e-06 8.378081505649e-07 -2.811621808719e-08 6.197544152205e-08 -8.124414579207e-08
0.00032              -5.681720187583e-07 3.449111157044e-06 7.526361227552e-07 -5.406315721903e-07 3.388086020194e-06 8.323372448917e-07 -2.754044656795e-08 6.102513684972e-08 -7.970112213655e-08
0.00033              -5.655284354954e-07 3.422112710444e-06 7.494343825513e-07 -5.385351740361e-07 3.361989437165e-06 8.276315992517e-07 -2.699326145924e-08 6.012327327917e-08 -7.819721670043e-08
0.00034              -5.632227641990e-07 3.397027207101e-06 7.464374830780e-07 -5.367505035415e-07 3.337759804886e-06 8.231681141415e-07 -2.647226065752e-08 5.926740221459e-08 -7.673063106348e-08
0.00035              -5.611657710234e-07 3.373482066887e-06 7.435475976044e-07 -5.351901440763e-07 3.315028816097e-06 8.188501457150e-07 -2.597562694709e-08 5.845325079019e-08 -7.530254811053e-08
0.00036              -5.578492312867e-07 3.345754302141e-06 7.400250558307e-07 -5.323480745704e-07 3.288077943998e-06 8.139403581207e-07 -2.550115671637e-08 5.767635814290e-08 -7.391530229001e-08
0.00037              -5.570936442798e-07 3.327499614117e-06 7.377927920818e-07 -5.320461580929e-07 3.270565154686e-06 8.103575106448e-07 -2.504748618693e-08 5.693445943089e-08 -7.256471856300e-08
