# Moment            
# CofR              : (0.000000000000e+00 0.000000000000e+00 0.000000000000e+00)
#
# Time              	total_x total_y total_z	pressure_x pressure_y pressure_z	viscous_x viscous_y viscous_z
1e-05                -2.479681631180e-04 1.249889354257e-03 1.853791298414e-04 -2.478263890359e-04 1.249511838104e-03 1.854977244879e-04 -1.417740821116e-07 3.775161527680e-07 -1.185946464713e-07
