# Moment            
# CofR              : (0.000000000000e+00 0.000000000000e+00 0.000000000000e+00)
#
# Time              	total_x total_y total_z	pressure_x pressure_y pressure_z	viscous_x viscous_y viscous_z
5e-05                -4.970975976059e-05 2.507691428620e-04 3.752073595136e-05 -4.955196466888e-05 2.501371557987e-04 3.750549118644e-05 -1.577950917058e-07 6.319870632099e-07 1.524476491762e-08
0.0001               2.281747333897e-05 -1.130409601439e-04 -1.666665313403e-05 2.290212597041e-05 -1.133312842478e-04 -1.662643767213e-05 -8.465263143412e-08 2.903241039695e-07 -4.021546189562e-08
0.00015              -5.377781675486e-07 2.950351519294e-06 6.175453311276e-07 -4.773416951485e-07 2.765874423108e-06 6.833563359991e-07 -6.043647240008e-08 1.844770961855e-07 -6.581100487154e-08
0.0002               -6.865570463082e-07 4.104764820490e-06 7.943622764370e-07 -6.376745283166e-07 3.962725702776e-06 8.696298414850e-07 -4.888251799155e-08 1.420391177146e-07 -7.526756504801e-08
0.00025              -6.293582388911e-07 3.727059615085e-06 7.439564190144e-07 -5.879753446724e-07 3.607239175553e-06 8.210153575227e-07 -4.138289421867e-08 1.198204395323e-07 -7.705893850832e-08
0.0003               -6.031290397831e-07 3.554503460993e-06 7.234040455396e-07 -5.672388935821e-07 3.448350029768e-06 7.990928985111e-07 -3.589014620101e-08 1.061534312258e-07 -7.568885297145e-08
0.00035              -5.995799603313e-07 3.465361008625e-06 7.152977798010e-07 -5.678325254956e-07 3.368535332808e-06 7.883398703072e-07 -3.174743483569e-08 9.682567581702e-08 -7.304209050625e-08
0.0004               -5.742093160539e-07 3.310632296954e-06 6.956094495937e-07 -5.456120613213e-07 3.220761274896e-06 7.656050165373e-07 -2.859725473258e-08 8.987102205813e-08 -6.999556694360e-08
0.00045              -5.659951973750e-07 3.212684435692e-06 6.830628610548e-07 -5.398122121966e-07 3.128375123937e-06 7.499478361483e-07 -2.618298517844e-08 8.430931175535e-08 -6.688497509345e-08
0.0005               -5.584119148122e-07 3.128089721793e-06 6.730688791815e-07 -5.341120460761e-07 3.048432314862e-06 7.369144002959e-07 -2.429986873613e-08 7.965740693091e-08 -6.384552111437e-08
0.00055              -5.614413304636e-07 3.099774965144e-06 6.689491268158e-07 -5.386337384289e-07 3.024106086798e-06 7.298731432896e-07 -2.280759203473e-08 7.566887834644e-08 -6.092401647379e-08
0.0006               -5.581780130597e-07 3.043568854303e-06 6.607150303759e-07 -5.365862516922e-07 2.971382063550e-06 7.188402557766e-07 -2.159176136750e-08 7.218679075294e-08 -5.812522540067e-08
0.00065              -5.468807726463e-07 2.949763788421e-06 6.476926109950e-07 -5.263111997923e-07 2.880654584362e-06 7.031462576716e-07 -2.056957285396e-08 6.910920405930e-08 -5.545364667663e-08
0.0007               -5.522108104543e-07 2.934228883406e-06 6.442724193488e-07 -5.325261892400e-07 2.867878980544e-06 6.971907150718e-07 -1.968462121425e-08 6.634990286142e-08 -5.291829572303e-08
0.00075              -5.482484867235e-07 2.882445748925e-06 6.357633127872e-07 -5.293497888137e-07 2.818589546534e-06 6.862962489320e-07 -1.889869790986e-08 6.385620239037e-08 -5.053293614479e-08
0.0008               -5.576884172910e-07 2.885616920702e-06 6.348222083005e-07 -5.395022649605e-07 2.824043281209e-06 6.831010074819e-07 -1.818615233055e-08 6.157363949216e-08 -4.827879918145e-08
0.00085              -5.457392470251e-07 2.804062488874e-06 6.227115763817e-07 -5.282098294355e-07 2.744576831709e-06 6.688805239742e-07 -1.752941758960e-08 5.948565716584e-08 -4.616894759247e-08
0.0009               -5.483284146898e-07 2.779768376708e-06 6.167501204993e-07 -5.314104568620e-07 2.722212024281e-06 6.609485797948e-07 -1.691795782779e-08 5.755635242684e-08 -4.419845929551e-08
0.00095              -5.543179724400e-07 2.780539774337e-06 6.155653831556e-07 -5.379639294815e-07 2.724750940838e-06 6.579120548769e-07 -1.635404295849e-08 5.578883349889e-08 -4.234667172130e-08
0.001                -5.463664592840e-07 2.719707392866e-06 6.043495414642e-07 -5.305334035245e-07 2.665539297447e-06 6.449653356191e-07 -1.583305575951e-08 5.416809541949e-08 -4.061579415488e-08
0.00105              -5.457654611712e-07 2.693054920749e-06 5.990352776594e-07 -5.304217691521e-07 2.640380994856e-06 6.380314242487e-07 -1.534369201912e-08 5.267392589332e-08 -3.899614658929e-08
0.0011               -5.540062334928e-07 2.705375642557e-06 5.982432078314e-07 -5.391136387242e-07 2.654074159017e-06 6.357070800941e-07 -1.489259476860e-08 5.130148353916e-08 -3.746387226279e-08
0.00115              -5.547968044535e-07 2.691290071224e-06 5.944231472995e-07 -5.403184584168e-07 2.641246556476e-06 6.304447745468e-07 -1.447834603666e-08 5.004351474743e-08 -3.602162724727e-08
0.0012               -5.425588723677e-07 2.613175860454e-06 5.805603499268e-07 -5.284712027327e-07 2.564298996004e-06 6.152124911970e-07 -1.408766963500e-08 4.887686444967e-08 -3.465214127018e-08
0.00125              -5.543624152528e-07 2.652158926625e-06 5.839580510792e-07 -5.406323434162e-07 2.604350562622e-06 6.173228235328e-07 -1.373007183660e-08 4.780836400307e-08 -3.336477245366e-08
0.0013               -5.557263507354e-07 2.636506830691e-06 5.796330223094e-07 -5.423306991662e-07 2.589700398858e-06 6.117652016760e-07 -1.339565156913e-08 4.680643183334e-08 -3.213217936657e-08
0.00135              -5.418132851891e-07 2.569078163915e-06 5.668126742489e-07 -5.287273499129e-07 2.523186367104e-06 5.977920051948e-07 -1.308593527619e-08 4.589179681131e-08 -3.097933094594e-08
0.0014               -5.576197776531e-07 2.615678638104e-06 5.717513450631e-07 -5.448174473306e-07 2.570641696514e-06 6.016169509804e-07 -1.280233032250e-08 4.503694159084e-08 -2.986560591734e-08
0.00145              -5.479609414252e-07 2.562455305297e-06 5.619615900452e-07 -5.354247806565e-07 2.518220681254e-06 5.907610547440e-07 -1.253616076873e-08 4.423462404293e-08 -2.879946469879e-08
0.0015               -5.542765890950e-07 2.575653423285e-06 5.612257515448e-07 -5.419856024139e-07 2.532166696311e-06 5.889974270346e-07 -1.229098668111e-08 4.348672697453e-08 -2.777167548978e-08
0.00155              -5.602605337614e-07 2.584700890898e-06 5.609657275068e-07 -5.481968020322e-07 2.541919964021e-06 5.877383877348e-07 -1.206373172927e-08 4.278092687628e-08 -2.677266022793e-08
0.0016               -5.433691281776e-07 2.508171490492e-06 5.470575065919e-07 -5.315192286805e-07 2.466051753723e-06 5.728782476649e-07 -1.184989949712e-08 4.211973676840e-08 -2.582074107295e-08
0.00165              -5.546970761739e-07 2.538780879435e-06 5.502531382256e-07 -5.430457065468e-07 2.497290903457e-06 5.751371377033e-07 -1.165136962710e-08 4.148997597839e-08 -2.488399947767e-08
0.0017               -5.536818658103e-07 2.524714141199e-06 5.458812987335e-07 -5.422154489001e-07 2.483818108931e-06 5.698586958200e-07 -1.146641691019e-08 4.089603226833e-08 -2.397739708653e-08
0.00175              -5.548404170739e-07 2.518099287130e-06 5.429784736976e-07 -5.435468935838e-07 2.477767102902e-06 5.660690111263e-07 -1.129352349010e-08 4.033218422845e-08 -2.309053742871e-08
0.0018               -5.586046239800e-07 2.523242535632e-06 5.422162722398e-07 -5.474756111356e-07 2.483453822804e-06 5.644420262900e-07 -1.112901284446e-08 3.978871282812e-08 -2.222575405021e-08
0.00185              -5.547387416837e-07 2.496571874164e-06 5.371010263718e-07 -5.437680724008e-07 2.457303655642e-06 5.584760527067e-07 -1.097066928289e-08 3.926821852259e-08 -2.137502633482e-08
0.0019               -5.448586547718e-07 2.446020428008e-06 5.273115836149e-07 -5.340420337671e-07 2.407255066190e-06 5.478664383136e-07 -1.081662100463e-08 3.876536181848e-08 -2.055485469866e-08
0.00195              -5.603494151753e-07 2.501266348797e-06 5.341259819443e-07 -5.496773246597e-07 2.462982149009e-06 5.538722703104e-07 -1.067209051552e-08 3.828419978831e-08 -1.974628836607e-08
0.002                -5.512717787903e-07 2.453487642208e-06 5.260764428310e-07 -5.407397971338e-07 2.415669291157e-06 5.450319876838e-07 -1.053198165651e-08 3.781835105099e-08 -1.895554485274e-08
0.00205              -5.549881295921e-07 2.461849918099e-06 5.252272915580e-07 -5.445894458562e-07 2.424476253427e-06 5.434207619385e-07 -1.039868373590e-08 3.737366467234e-08 -1.819347038047e-08
0.0021               -5.481702081027e-07 2.425843720909e-06 5.193950072721e-07 -5.379056214727e-07 2.388909936242e-06 5.368353907719e-07 -1.026458663003e-08 3.693378466739e-08 -1.744038349979e-08
0.00215              -5.555366496290e-07 2.446646398311e-06 5.205083379156e-07 -5.454000361702e-07 2.410138321862e-06 5.372178272512e-07 -1.013661345885e-08 3.650807644965e-08 -1.670948933569e-08
0.0022               -5.499896555202e-07 2.416324876000e-06 5.152021555819e-07 -5.399781971547e-07 2.380230003723e-06 5.311993436561e-07 -1.001145836549e-08 3.609487227683e-08 -1.599718807422e-08
0.00225              -5.605782891684e-07 2.450041274438e-06 5.183835407206e-07 -5.506896724145e-07 2.414353916844e-06 5.336854798330e-07 -9.888616753832e-09 3.568735759406e-08 -1.530193911235e-08
0.0023               -5.462531282253e-07 2.388397924862e-06 5.086248447751e-07 -5.364863969553e-07 2.353104055712e-06 5.232521294580e-07 -9.766731270057e-09 3.529386914990e-08 -1.462728468292e-08
0.00235              -5.451265714480e-07 2.375653528272e-06 5.056038519632e-07 -5.354794893833e-07 2.340741036030e-06 5.195774589898e-07 -9.647082064733e-09 3.491249224149e-08 -1.397360702663e-08
0.0024               -5.541072746178e-07 2.405655909319e-06 5.085179198009e-07 -5.445773747049e-07 2.371120712655e-06 5.218533414034e-07 -9.529899912901e-09 3.453519666422e-08 -1.333542160253e-08
0.00245              -5.430142649016e-07 2.354655500102e-06 5.004104282073e-07 -5.336006678970e-07 2.320487231043e-06 5.131310380089e-07 -9.413597004645e-09 3.416826905817e-08 -1.272060980168e-08
0.0025               -5.469813868698e-07 2.364864197586e-06 5.002767423069e-07 -5.376820762075e-07 2.331052457424e-06 5.124025016975e-07 -9.299310662244e-09 3.381174016144e-08 -1.212575939064e-08
0.00255              -5.523772482195e-07 2.380188030980e-06 5.011618944048e-07 -5.431904527619e-07 2.346729639831e-06 5.127086647691e-07 -9.186795457545e-09 3.345839114904e-08 -1.154677036422e-08
0.0026               -5.407102577411e-07 2.328068012707e-06 4.932953605042e-07 -5.316348022816e-07 2.294952249699e-06 5.042789988680e-07 -9.075455459505e-09 3.311576300798e-08 -1.098363836386e-08
0.00265              -5.463266180899e-07 2.345727664429e-06 4.939335606151e-07 -5.373610513198e-07 2.312947659304e-06 5.043792735163e-07 -8.965566770199e-09 3.278000512518e-08 -1.044571290119e-08
0.0027               -5.411497927532e-07 2.319217079702e-06 4.895567599264e-07 -5.322938350083e-07 2.286767020591e-06 4.994814422718e-07 -8.855957744826e-09 3.245005911039e-08 -9.924682345346e-09
0.00275              -5.425183729575e-07 2.319944863895e-06 4.884736202970e-07 -5.337703726426e-07 2.287817614574e-06 4.978945544872e-07 -8.748000314947e-09 3.212724932080e-08 -9.420934190215e-09
0.0028               -5.423287643712e-07 2.314640404499e-06 4.864275651234e-07 -5.336874462404e-07 2.282829304905e-06 4.953654862479e-07 -8.641318130792e-09 3.181109959449e-08 -8.937921124474e-09
0.00285              -5.434526693738e-07 2.314672304493e-06 4.852836212091e-07 -5.349169704126e-07 2.283174797468e-06 4.937590517524e-07 -8.535698961124e-09 3.149750702428e-08 -8.475430543305e-09
0.0029               -5.330728311275e-07 2.267818072299e-06 4.778350237567e-07 -5.246427662288e-07 2.236622106528e-06 4.858612025431e-07 -8.430064898629e-09 3.119596577021e-08 -8.026178786337e-09
0.00295              -5.434071948497e-07 2.306987627296e-06 4.819140081533e-07 -5.350800857614e-07 2.276089131041e-06 4.895124417964e-07 -8.327109088305e-09 3.089849625542e-08 -7.598433643033e-09
0.003                -5.330824048008e-07 2.258938076419e-06 4.745231206533e-07 -5.248577990674e-07 2.228330845335e-06 4.817012071224e-07 -8.224605733402e-09 3.060723108437e-08 -7.178086469071e-09
0.00305              -5.385291054434e-07 2.279811933653e-06 4.757844956694e-07 -5.304057241859e-07 2.249490631575e-06 4.825694415476e-07 -8.123381257588e-09 3.032130207709e-08 -6.784945878211e-09
0.0031               -5.317277745425e-07 2.246227289394e-06 4.706061592537e-07 -5.237031492791e-07 2.216182341792e-06 4.770008903839e-07 -8.024625263465e-09 3.004494760213e-08 -6.394731130202e-09
0.00315              -5.334144691886e-07 2.251300218701e-06 4.697542125062e-07 -5.254881352627e-07 2.221526791624e-06 4.757800029544e-07 -7.926333925972e-09 2.977342707745e-08 -6.025790448232e-09
0.0032               -5.327958377926e-07 2.245426316847e-06 4.681421282135e-07 -5.249658700672e-07 2.215918520443e-06 4.738092551894e-07 -7.829967725392e-09 2.950779640431e-08 -5.667126975922e-09
0.00325              -5.338528506001e-07 2.247692426625e-06 4.671698713549e-07 -5.261170610679e-07 2.218447099810e-06 4.725004406337e-07 -7.735789532191e-09 2.924532681466e-08 -5.330569278719e-09
0.0033               -5.254426958368e-07 2.208081229247e-06 4.609442476597e-07 -5.178019826612e-07 2.179089699181e-06 4.659318434847e-07 -7.640713175539e-09 2.899153006661e-08 -4.987595825082e-09
0.00335              -5.312356683905e-07 2.231446915867e-06 4.629844866814e-07 -5.236874280859e-07 2.202705544497e-06 4.676482947506e-07 -7.548240304595e-09 2.874137137041e-08 -4.663808069192e-09
0.0034               -5.278017017598e-07 2.212850894900e-06 4.596638978016e-07 -5.203442884221e-07 2.184355150467e-06 4.640096708587e-07 -7.457413337618e-09 2.849574443280e-08 -4.345773057074e-09
0.00345              -5.239708624515e-07 2.195765798539e-06 4.559437307458e-07 -5.166042770156e-07 2.167509790939e-06 4.599844096536e-07 -7.366585435882e-09 2.825600759990e-08 -4.040678907865e-09
0.0035               -5.265333759246e-07 2.203249439266e-06 4.563754278721e-07 -5.192543694633e-07 2.175227250097e-06 4.601153107145e-07 -7.279006461370e-09 2.802218916982e-08 -3.739882842431e-09
0.00355              -5.253915279645e-07 2.196289048304e-06 4.543586057459e-07 -5.181990502321e-07 2.168496512545e-06 4.578050091540e-07 -7.192477732442e-09 2.779253575875e-08 -3.446403408077e-09
0.0036               -5.234480166831e-07 2.186546354543e-06 4.520580097060e-07 -5.163412423285e-07 2.158979721564e-06 4.552193913019e-07 -7.106774354599e-09 2.756663297939e-08 -3.161381595882e-09
0.00365              -5.233910338974e-07 2.185557822960e-06 4.509915631268e-07 -5.163672985096e-07 2.158211727325e-06 4.538849333833e-07 -7.023735387778e-09 2.734609563571e-08 -2.893370256479e-09
0.0037               -5.181161783996e-07 2.157875912799e-06 4.464575471466e-07 -5.111763852025e-07 2.130745486940e-06 4.490698424124e-07 -6.939793197163e-09 2.713042585935e-08 -2.612295265755e-09
0.00375              -5.204747648022e-07 2.169126841835e-06 4.469651784836e-07 -5.136167873920e-07 2.142205789989e-06 4.493091268921e-07 -6.857977410238e-09 2.692105184666e-08 -2.343948408455e-09
0.0038               -5.207766029461e-07 2.168557769320e-06 4.461788608580e-07 -5.139978088810e-07 2.141844280222e-06 4.482670784582e-07 -6.778794065056e-09 2.671348909854e-08 -2.088217600156e-09
0.00385              -5.157524651994e-07 2.142881277336e-06 4.419305313064e-07 -5.090531119605e-07 2.116371344934e-06 4.437545302556e-07 -6.699353238958e-09 2.650993240185e-08 -1.823998949205e-09
0.0039               -5.163101698439e-07 2.146264841609e-06 4.414165669436e-07 -5.096895494432e-07 2.119953289872e-06 4.429850136326e-07 -6.620620400768e-09 2.631155173778e-08 -1.568446689003e-09
0.00395              -5.157008312902e-07 2.141327047313e-06 4.400894818511e-07 -5.091568034746e-07 2.115209966913e-06 4.414064772365e-07 -6.544027815606e-09 2.611708040043e-08 -1.316995385357e-09
0.004                -5.145141982428e-07 2.134671654073e-06 4.384372276785e-07 -5.080455551786e-07 2.108745937396e-06 4.395069227711e-07 -6.468643064146e-09 2.592571667779e-08 -1.069695092618e-09
0.00405              -5.131021444584e-07 2.127214227879e-06 4.366755239339e-07 -5.067079905822e-07 2.101476224297e-06 4.375012857893e-07 -6.394153876187e-09 2.573800358180e-08 -8.257618554244e-10
0.0041               -5.118306328614e-07 2.120609738327e-06 4.350301906449e-07 -5.055101360182e-07 2.095055882289e-06 4.356155240047e-07 -6.320496843103e-09 2.555385603813e-08 -5.853333598254e-10
0.00415              -5.109032978617e-07 2.115287220538e-06 4.336207547200e-07 -5.046553948768e-07 2.089913985790e-06 4.339682227238e-07 -6.247902984910e-09 2.537323474823e-08 -3.474680038201e-10
0.0042               -5.097504453164e-07 2.108962239743e-06 4.320902328789e-07 -5.035738901979e-07 2.083765531570e-06 4.322023066424e-07 -6.176555118443e-09 2.519670817261e-08 -1.120737634468e-10
0.00425              -5.096925619144e-07 2.108267469639e-06 4.313956401085e-07 -5.035856792801e-07 2.083245307531e-06 4.312817124617e-07 -6.106882634342e-09 2.502216210736e-08 1.139276468725e-10
0.0043               -5.056368873269e-07 2.087036338996e-06 4.277241089525e-07 -4.996012887028e-07 2.062185834890e-06 4.273691263477e-07 -6.035598624134e-09 2.485050410584e-08 3.549826047619e-10
0.00435              -5.088594057268e-07 2.102711533182e-06 4.293795806395e-07 -5.028920535882e-07 2.078029086477e-06 4.288006905555e-07 -5.967352138614e-09 2.468244670463e-08 5.788900840752e-10
0.0044               -5.041638653985e-07 2.077210670738e-06 4.253001457665e-07 -4.982647179275e-07 2.052694661331e-06 4.244882349556e-07 -5.899147471052e-09 2.451600940690e-08 8.119108108277e-10
0.00445              -5.038478544126e-07 2.077761776416e-06 4.246309136811e-07 -4.980162001429e-07 2.053406635741e-06 4.235933628925e-07 -5.831654269779e-09 2.435514067455e-08 1.037550788616e-09
0.0045               -5.038036485459e-07 2.075563629465e-06 4.238713905159e-07 -4.980371165235e-07 2.051365424950e-06 4.226123978134e-07 -5.766532022433e-09 2.419820451412e-08 1.258992702522e-09
0.00455              -5.026888438571e-07 2.068795686918e-06 4.223663075389e-07 -4.969879976136e-07 2.044755692696e-06 4.208866255888e-07 -5.700846243498e-09 2.403999422201e-08 1.479681950157e-09
0.0046               -5.013549415568e-07 2.062066853146e-06 4.208801617084e-07 -4.957184942666e-07 2.038180986150e-06 4.191819682222e-07 -5.636447290183e-09 2.388586699649e-08 1.698193486228e-09
0.00465              -5.004299512189e-07 2.056803745747e-06 4.196236104088e-07 -4.948573271347e-07 2.033069792916e-06 4.177090681336e-07 -5.572624084246e-09 2.373395283120e-08 1.914542275157e-09
0.0047               -4.997776868512e-07 2.052756985954e-06 4.185740709029e-07 -4.942677935020e-07 2.029171751611e-06 4.164454844463e-07 -5.509893349203e-09 2.358523434229e-08 2.128586456659e-09
0.00475              -4.985003452798e-07 2.046072541625e-06 4.170927494788e-07 -4.930524634477e-07 2.022634230726e-06 4.147535792677e-07 -5.447881832146e-09 2.343831089953e-08 2.339170211119e-09
0.0048               -4.974273925964e-07 2.040333872538e-06 4.158113013708e-07 -4.920404790554e-07 2.017039767697e-06 4.132649189623e-07 -5.386913541032e-09 2.329410484078e-08 2.546382408545e-09
0.00485              -4.966016115807e-07 2.035894137122e-06 4.146793068236e-07 -4.912755031119e-07 2.012743438544e-06 4.119293706608e-07 -5.326108468738e-09 2.315069857833e-08 2.749936162854e-09
0.0049               -4.955467707793e-07 2.028735588059e-06 4.132988143493e-07 -4.902797936416e-07 2.005724742455e-06 4.103442778878e-07 -5.266977137680e-09 2.301084560419e-08 2.954536461537e-09
0.00495              -4.945195445358e-07 2.024628700046e-06 4.121574948414e-07 -4.893111483409e-07 2.001755575916e-06 4.090028565688e-07 -5.208396194921e-09 2.287312413053e-08 3.154638272627e-09
0.005                -4.936345769100e-07 2.018163886818e-06 4.108611023333e-07 -4.884846693613e-07 1.995428603468e-06 4.075053981874e-07 -5.149907548673e-09 2.273528334974e-08 3.355704145849e-09
0.00505              -4.926561719220e-07 2.015516162211e-06 4.099530532398e-07 -4.875631732726e-07 1.992916137571e-06 4.064095156203e-07 -5.092998649424e-09 2.260002463990e-08 3.543537619532e-09
0.0051               -4.911835610295e-07 2.002446714335e-06 4.079109185855e-07 -4.861474653937e-07 1.979980200924e-06 4.041636798486e-07 -5.036095635767e-09 2.246651341039e-08 3.747238736862e-09
0.00515              -4.910154621029e-07 2.005307566593e-06 4.076921545657e-07 -4.860348282022e-07 1.982970524351e-06 4.037509208784e-07 -4.980633900680e-09 2.233704224277e-08 3.941233687355e-09
0.0052               -4.898805283802e-07 1.997267246914e-06 4.062186042758e-07 -4.849556895519e-07 1.975062318004e-06 4.020859608786e-07 -4.924838828292e-09 2.220492890965e-08 4.132643397231e-09
0.00525              -4.887488280682e-07 1.991281126252e-06 4.049619614006e-07 -4.838789902166e-07 1.969206709148e-06 4.006400513808e-07 -4.869837851547e-09 2.207441710376e-08 4.321910019816e-09
0.0053               -4.876821124269e-07 1.985865010613e-06 4.037952051962e-07 -4.828663339538e-07 1.963918058666e-06 3.992860505407e-07 -4.815778473172e-09 2.194695194690e-08 4.509154655570e-09
0.00535              -4.867012245542e-07 1.980513509000e-06 4.026465104391e-07 -4.819387307960e-07 1.958692212734e-06 3.979521073260e-07 -4.762493758180e-09 2.182129626617e-08 4.694403113097e-09
0.0054               -4.859528730468e-07 1.976209717129e-06 4.016622580840e-07 -4.812427775471e-07 1.954512410060e-06 3.967851158195e-07 -4.710095499688e-09 2.169730706885e-08 4.877142264542e-09
0.00545              -4.850233174893e-07 1.970942974867e-06 4.005323385835e-07 -4.803649873120e-07 1.949368903107e-06 3.954742679493e-07 -4.658330177259e-09 2.157407176017e-08 5.058070634147e-09
0.0055               -4.840132374070e-07 1.965357630672e-06 3.993539175183e-07 -4.794064992787e-07 1.943906635171e-06 3.941161685268e-07 -4.606738128349e-09 2.145099550101e-08 5.237748991554e-09
0.00555              -4.831903468482e-07 1.960870778007e-06 3.983574803804e-07 -4.786343790775e-07 1.939541175774e-06 3.929424426569e-07 -4.555967770669e-09 2.132960223310e-08 5.415037723579e-09
0.0056               -4.823101382248e-07 1.955996559643e-06 3.973064161295e-07 -4.778041005496e-07 1.934786937886e-06 3.917164007964e-07 -4.506037675140e-09 2.120962175781e-08 5.590015333122e-09
0.00565              -4.795287866238e-07 1.943183766435e-06 3.950440919880e-07 -4.750726622028e-07 1.922093104275e-06 3.892820042848e-07 -4.456124421020e-09 2.109066215986e-08 5.762087703272e-09
0.0057               -4.814165716067e-07 1.949500588212e-06 3.957130828163e-07 -4.770084496206e-07 1.928526462629e-06 3.897804409501e-07 -4.408121986137e-09 2.097412558337e-08 5.932641866170e-09
0.00575              -4.802632398917e-07 1.943416211069e-06 3.944578595417e-07 -4.759028288803e-07 1.922558663812e-06 3.883550498105e-07 -4.360411011310e-09 2.085754725714e-08 6.102809731229e-09
0.0058               -4.782592171783e-07 1.934557947519e-06 3.928227080654e-07 -4.739457303486e-07 1.913815468104e-06 3.865534758775e-07 -4.313486829786e-09 2.074247941464e-08 6.269232187960e-09
0.00585              -4.768644172300e-07 1.928444168195e-06 3.915416605597e-07 -4.725975754100e-07 1.907816024413e-06 3.851157349031e-07 -4.266841819958e-09 2.062814378202e-08 6.425925656583e-09
0.0059               -4.776691522471e-07 1.928226249442e-06 3.913403506010e-07 -4.734481650686e-07 1.907711664052e-06 3.847481033204e-07 -4.220987178507e-09 2.051458538957e-08 6.592247280612e-09
0.00595              -4.751735054697e-07 1.917747992271e-06 3.893251307171e-07 -4.709990361673e-07 1.897346883162e-06 3.825695508125e-07 -4.174469302489e-09 2.040110910968e-08 6.755579904656e-09
0.006                -4.745295157643e-07 1.912810226160e-06 3.883400890034e-07 -4.704009424332e-07 1.892521942505e-06 3.814237713394e-07 -4.128573331078e-09 2.028828365522e-08 6.916317663948e-09
0.00605              -4.739072531208e-07 1.910745381413e-06 3.877199064726e-07 -4.698231683391e-07 1.890567156128e-06 3.806497120967e-07 -4.084084781734e-09 2.017822528493e-08 7.070194375910e-09
0.0061               -4.729657350187e-07 1.905177510657e-06 3.865935547379e-07 -4.689254444956e-07 1.885108130706e-06 3.793719516772e-07 -4.040290523105e-09 2.006937995065e-08 7.221603060730e-09
0.00615              -4.724601235803e-07 1.901809750170e-06 3.857882669233e-07 -4.684632260801e-07 1.881849029449e-06 3.784178015512e-07 -3.996897500181e-09 1.996072072138e-08 7.370465372072e-09
0.0062               -4.725539418124e-07 1.901352911774e-06 3.855037432027e-07 -4.685989460668e-07 1.881497812992e-06 3.779864294233e-07 -3.954995745603e-09 1.985509878222e-08 7.517313779390e-09
0.00625              -4.683755713368e-07 1.883147022265e-06 3.823066768978e-07 -4.644642403466e-07 1.863399549814e-06 3.746420033190e-07 -3.911330990170e-09 1.974747245106e-08 7.664673578757e-09
0.0063               -4.685266996262e-07 1.882944421706e-06 3.820389421558e-07 -4.646578800748e-07 1.863302680645e-06 3.742300475452e-07 -3.868819551416e-09 1.964174106144e-08 7.808894610649e-09
0.00635              -4.686208361352e-07 1.882107820231e-06 3.816524927607e-07 -4.647926080602e-07 1.862568905316e-06 3.737060148300e-07 -3.828228075017e-09 1.953891491424e-08 7.946477930676e-09
0.0064               -4.676357958153e-07 1.877091546810e-06 3.806133237811e-07 -4.638473473360e-07 1.857654107957e-06 3.725325345798e-07 -3.788448479330e-09 1.943743885315e-08 8.080789201339e-09
0.00645              -4.662553228342e-07 1.871042025590e-06 3.794064968188e-07 -4.625057270266e-07 1.851703475185e-06 3.711949997330e-07 -3.749595807604e-09 1.933855040445e-08 8.211497085727e-09
0.0065               -4.657883669337e-07 1.867830807477e-06 3.785721828996e-07 -4.620792556289e-07 1.848594135421e-06 3.702310979199e-07 -3.709111304787e-09 1.923667205542e-08 8.341084979717e-09
0.00655              -4.642603609022e-07 1.861012488821e-06 3.773065095931e-07 -4.605895236755e-07 1.841873636540e-06 3.688391358270e-07 -3.670837226712e-09 1.913885228025e-08 8.467373766041e-09
0.0066               -4.630645237574e-07 1.853347507019e-06 3.757952857118e-07 -4.594329312919e-07 1.834307835188e-06 3.671996431643e-07 -3.631592465501e-09 1.903967183063e-08 8.595642547487e-09
0.00665              -4.628003484544e-07 1.853010450437e-06 3.754688559477e-07 -4.592064997470e-07 1.834068306318e-06 3.667548487719e-07 -3.593848707454e-09 1.894214411960e-08 8.714007175860e-09
0.0067               -4.623633656635e-07 1.849766434960e-06 3.747514089511e-07 -4.588070784120e-07 1.830918736389e-06 3.659147697809e-07 -3.556287251404e-09 1.884769857022e-08 8.836639170189e-09
0.00675              -4.610091292536e-07 1.844700590200e-06 3.736336378106e-07 -4.574877865983e-07 1.825945926736e-06 3.646893900828e-07 -3.521342655270e-09 1.875466346354e-08 8.944247727784e-09
0.0068               -4.595115843214e-07 1.834999653437e-06 3.719346578883e-07 -4.560280988293e-07 1.816338974878e-06 3.628669281439e-07 -3.483485492069e-09 1.866067855961e-08 9.067729744412e-09
0.00685              -4.591261943382e-07 1.835138899030e-06 3.716104953600e-07 -4.556786223168e-07 1.816570041005e-06 3.624310678457e-07 -3.447572021417e-09 1.856885802482e-08 9.179427514319e-09
0.0069               -4.583609824562e-07 1.830297856333e-06 3.706358550228e-07 -4.549484559951e-07 1.811820253748e-06 3.613499401842e-07 -3.412526461170e-09 1.847760258453e-08 9.285914838520e-09
0.00695              -4.572246221535e-07 1.824959547258e-06 3.695363877153e-07 -4.538466432954e-07 1.806571752326e-06 3.601468803734e-07 -3.377978858113e-09 1.838779493227e-08 9.389507341870e-09
0.007                -4.559964502964e-07 1.819551638533e-06 3.684345659933e-07 -4.526522410244e-07 1.801251149073e-06 3.589450219460e-07 -3.344209272014e-09 1.830048946051e-08 9.489544047338e-09
0.00705              -4.558518294240e-07 1.818575129942e-06 3.679833142586e-07 -4.525411738832e-07 1.800361370912e-06 3.583974662992e-07 -3.310655540783e-09 1.821375903098e-08 9.585847959423e-09
0.0071               -4.540754660261e-07 1.808997464067e-06 3.662485576828e-07 -4.507975514109e-07 1.790869244783e-06 3.565663337148e-07 -3.277914615194e-09 1.812821928377e-08 9.682223968060e-09
0.00715              -4.533527275225e-07 1.806172500964e-06 3.654948297997e-07 -4.501082502921e-07 1.788130579156e-06 3.557178901464e-07 -3.244477230318e-09 1.804192180822e-08 9.776939653290e-09
0.0072               -4.527125341220e-07 1.803082012106e-06 3.647709391410e-07 -4.494997329825e-07 1.785123795604e-06 3.549042636102e-07 -3.212801139536e-09 1.795821650194e-08 9.866675530756e-09
0.00725              -4.521055269500e-07 1.799413179586e-06 3.639122235868e-07 -4.489237800122e-07 1.781537843198e-06 3.539577479264e-07 -3.181746937796e-09 1.787533638816e-08 9.954475660378e-09
0.0073               -4.508343832607e-07 1.794080453178e-06 3.628735363090e-07 -4.476826929274e-07 1.776284571994e-06 3.528365109760e-07 -3.151690333304e-09 1.779588118424e-08 1.003702533297e-08
0.00735              -4.498811694165e-07 1.787529679487e-06 3.615340127883e-07 -4.467606293765e-07 1.769814992232e-06 3.514120351724e-07 -3.120540039944e-09 1.771468725446e-08 1.012197761589e-08
0.0074               -4.491555166034e-07 1.785263031252e-06 3.609124818063e-07 -4.460646222430e-07 1.767626851544e-06 3.507095360735e-07 -3.090894360497e-09 1.763617970809e-08 1.020294573282e-08
0.00745              -4.487496487396e-07 1.784224900246e-06 3.604659299045e-07 -4.456859129655e-07 1.766664961473e-06 3.501952396763e-07 -3.063735774121e-09 1.755993877273e-08 1.027069022823e-08
0.0075               -4.468458056079e-07 1.772391909584e-06 3.585133771068e-07 -4.438110742586e-07 1.754909635888e-06 3.481655358875e-07 -3.034731349337e-09 1.748227369578e-08 1.034784121933e-08
0.00755              -4.469849258650e-07 1.774423460266e-06 3.583452973433e-07 -4.439782002160e-07 1.757016221250e-06 3.479206276876e-07 -3.006725649048e-09 1.740723901601e-08 1.042466965571e-08
0.0076               -4.460072357644e-07 1.768328620933e-06 3.572550059346e-07 -4.430283320593e-07 1.750996995210e-06 3.467599603043e-07 -2.978903705129e-09 1.733162572308e-08 1.049504563036e-08