/*--------------------------------*- C++ -*----------------------------------*\
| =========                 |                                                 |
| \\      /  F ield         | OpenFOAM: The Open Source CFD Toolbox           |
|  \\    /   O peration     | Version:  2406                                  |
|   \\  /    A nd           | Website:  www.openfoam.com                      |
|    \\/     M anipulation  |                                                 |
\*---------------------------------------------------------------------------*/
FoamFile
{
    version     2.0;
    format      ascii;
    arch        "LSB;label=32;scalar=64";
    class       volScalarField;
    location    "0.01";
    object      k_0;
}
// * * * * * * * * * * * * * * * * * * * * * * * * * * * * * * * * * * * * * //

dimensions      [0 2 -2 0 0 0 0];

internalField   nonuniform List<scalar> 
29768
(
0.00190968424654
2.65174994437e-11
2.07302920468e-11
1e-15
2.36435364721e-13
1.16579579743e-09
8.475632061e-07
2.51854051571e-10
2.99435881188e-10
1e-15
4.91212513889e-11
1.08189192185e-10
1.74948864761e-08
9.10048495791e-10
1.34183638972e-08
1.67827120869e-10
2.79877693278e-11
1.16179824643e-08
1.75525838217e-08
1e-15
1e-15
9.27942619475e-10
1.67561058727e-09
2.99840896493e-09
2.06222180292e-10
0.00232976903128
0.00146317965055
3.39447252543e-12
0.0015896404413
5.45267809332e-14
0.000452424254943
1e-15
1e-15
0.000362447430058
5.43445595022e-06
1e-15
3.44676116057e-08
0.00010835703474
1.47127873139e-06
3.06877498785e-11
5.63581455286e-08
2.68940161158e-07
4.47550596124e-07
4.45403625805e-07
5.85481777556e-13
6.94565384448e-14
4.97525841434e-10
1.36718596143e-12
1.1445596783e-06
9.66954465173e-14
4.37155389316e-13
6.23455049495e-10
1.49271555471e-11
3.83432388921e-14
5.29439528937e-06
2.24708863596e-11
7.58298639255e-13
2.11460553465e-14
3.93697816876e-14
0.00047530002296
2.95125553344e-15
2.5069791746e-10
1e-15
3.15952563868e-14
5.4468294167e-15
2.15661692114e-14
6.15271885602e-08
1.19496030148e-07
1e-15
1.03017473821e-11
2.37912636109e-07
2.23258809288e-10
8.33948286505e-09
3.56937061782e-10
9.61460351969e-11
1.08597981279e-06
2.34095479925e-10
8.28281955161e-13
0.000384694555475
0.000193317871016
6.48662131203e-11
1.71639265241e-05
1e-15
4.15449123711e-12
1e-15
1.5304730842e-13
0.000155681303157
5.88069526499e-06
2.1160262344e-10
2.90209127921e-10
1.6540654706e-11
4.0845423066e-11
4.82158696673e-08
1.24200229646e-13
2.13137352322e-15
6.61517448631e-15
1.01785257159e-15
1e-15
1e-15
1e-15
1e-15
1.01688848653e-06
0.00103967519595
0.000372548473669
0.000903152269743
0.000307947897729
0.000360430363214
1.09157052235e-14
1e-15
1e-15
1e-15
1e-15
9.47649796456e-15
1.59859056041e-13
0.0098902914602
0.0132951971885
1e-15
1e-15
1e-15
8.26059982887e-14
1e-15
2.1937563872e-14
1e-15
4.52721563046e-06
0.000189397086567
1.96928877369e-08
0.0121561599143
0.00205963121275
8.13787520894e-09
0.00124579402887
0.000358030418124
0.00123696696061
9.96121059242e-11
0.00041085235783
0.000784837286968
0.000648923437861
7.8810904925e-07
3.88998935717e-08
0.00104826224846
8.58256850817e-08
0.000449685579158
0.00106137837283
1.86298514401e-07
2.55510903448e-08
5.54980137291e-08
0.00124730740405
0.000326884323268
1.12501256821e-08
0.000962802184089
0.0035878496942
0.00228326929705
0.00582935577112
0.000595440271724
0.000107221979859
0.000351741315149
6.14640886261e-12
1.63349750028e-06
1.35527092401e-07
0.000581110513803
1e-15
2.77450930566e-07
5.63816323324e-12
8.2816994525e-13
0.000471123636617
2.35546563103e-11
7.2089253169e-06
0.000325571724394
3.02742675104e-10
0.000122392009778
3.43571925906e-11
2.03714344462e-09
8.94277705737e-10
7.27990486752e-05
2.41320815534e-08
8.09053074344e-09
1.85465697518e-09
1.6061583175e-05
1.33528244397e-09
1.4299735353e-07
0.00292710986404
5.19794208199e-07
3.91706645028e-07
1.57831852768e-06
0.00332684748959
1.31198328018e-06
8.360356214e-05
0.000527577465863
0.00240811632473
4.941932904e-05
6.99537400877e-09
4.78480292982e-10
2.45931296796e-09
2.7939747398e-05
6.41673611837e-05
9.03272725934e-05
0.000735362510407
0.00327781551061
4.22722037734e-07
1.75490353854e-10
0.00399387374543
9.80122389324e-07
0.00390235606999
6.83394943423e-05
0.00274316820961
6.19878616634e-07
1.88296078397e-07
3.98569050821e-07
0.000303739716954
0.00325149218599
4.88466996423e-07
3.18815963501e-10
0.00346339317702
0.00489357913909
0.018270522044
1.39821096554e-10
8.72239443282e-08
6.46880931997e-07
0.00157956279986
0.0098181714026
0.0022678552134
6.76171331029e-12
8.62043763238e-10
0.00491965542565
3.35381378366e-07
1.15795374221e-07
0.00538900895228
1.11261662224e-08
0.00410716133143
0.00848127085493
0.0119711504228
0.0253243640646
4.74332766563e-14
1.54022372369e-06
8.02321457927e-09
1.00720148254e-11
0.0358282174593
4.663213875e-07
0.0255333415059
2.06097641749e-08
2.55125087278e-08
2.67524398102e-09
1.68487509064e-06
0.024176712221
9.76808230847e-08
1.49644301456e-05
3.63326219598e-13
1.62684006321e-13
2.66054415012e-11
1.42338887029e-07
6.40015787411e-05
0.00864991634849
0.00489741691736
0.0402511718105
1.09625745505e-09
5.29770399999e-09
2.32059719935e-08
5.66621882132e-08
3.23843243077e-06
0.017709852402
0.0184055783181
5.76453865327e-10
1.16530041047e-10
1.32229880971e-10
0.0296162673205
1.00430487798e-05
1.96597887555e-05
0.0247463719768
1.1850052018e-09
4.0385027675e-07
0.000264327507432
1.72029516566e-07
2.70611940112e-06
5.38990327378e-05
2.97487193677e-11
7.79318838577e-07
5.23977165574e-06
4.09046777157e-12
2.70172537545e-11
2.74487652729e-09
1.33305183344e-05
2.65271379774e-11
4.46582695529e-07
1e-15
1e-15
1.7179913445e-06
3.01662505664e-10
3.52866037483e-14
1.35330906454e-07
0.00208832196424
6.69127170412e-07
4.67354417062e-13
0.000467450902188
2.95964779577e-12
4.47738955356e-12
0.000442535716451
1.2012912859e-06
5.50742498159e-06
1.76373494978e-14
1e-15
2.26640982937e-05
1e-15
1.69428152486e-13
0.00212722378334
0.000101501633049
0.000370310265535
0.00117279966148
0.00232289058937
0.00025087166749
5.41395526389e-06
2.71803979675e-10
2.80510899289e-11
0.000350112237858
4.06395665544e-05
3.3334420852e-14
2.5692389536e-06
2.30731962999e-10
1e-15
6.51263599047e-15
1e-15
5.54486965983e-13
6.04183697321e-12
2.52678482917e-11
0.00237904737543
0.00274413213345
0.000300727907838
1.36070863038e-08
0.00274348391526
0.000279655173957
1e-15
1.20072674777e-06
3.99161622403e-12
0.00995412061796
0.00650097457485
1e-15
7.43397826861e-07
2.70875824233e-11
0.00317538983398
0.00589462007028
2.80372451899e-08
6.9774468057e-13
1e-15
6.79493622978e-06
1.08739679181e-14
2.16225017349e-06
2.61007712589e-12
2.76718032225e-06
0.0197323885131
2.16055396451e-07
4.25995025543e-11
0.01090668597
0.0178060836524
7.3376030422e-09
0.00149687986424
0.000220490357486
0.00232107777376
0.00241947322496
0.00783422103214
0.00564434212638
2.37832864701e-07
1.34383135863e-10
5.50703938612e-08
0.000844834167188
0.00902784758659
1.90394974818e-08
4.96847131201e-05
6.42789368932e-10
1e-15
6.19409336347e-13
1.95615451856e-07
0.00988822588973
8.19398976008e-10
2.96184326674e-12
0.00277131103378
0.00401572599628
0.00281622170486
0.00517731261868
1.97836989606e-05
1.02632477656e-11
1.27722365866e-11
6.79326736227e-06
5.00190472146e-12
0.000509897408199
1.09612031719e-06
2.61680191418e-09
0.000193551717151
0.000677154155389
2.51963653474e-07
5.20579598892e-07
8.18626290662e-06
1.60223899984e-08
0.000721797823813
0.000982065293341
3.94304238574e-05
4.87236960635e-05
1.57017129029e-09
3.62158427604e-11
3.03872684416e-05
4.56882922692e-10
2.53742634467e-05
0.000551729345665
1.08324608943e-06
1.09187695286e-07
0.000614083207482
9.48164533292e-06
4.55061700553e-13
1.03878536977e-07
6.08714524704e-05
1.43753809347e-13
4.10439527684e-05
3.15132681768e-10
3.93017781468e-07
1.92141258894e-10
7.48320051112e-06
1.23209813253e-09
1.12299073549e-05
1.56242782672e-08
4.53610374891e-12
2.02147738167e-12
2.12163308681e-12
5.47376012923e-06
3.10736690649e-05
0.000101216140413
3.95892997881e-07
3.7205677689e-06
1.8228808351e-07
0.000719201870296
4.04609711339e-07
0.000495013025088
2.324050608e-07
1.04321390448e-07
0.000625537285185
5.00342374285e-09
1.86270283482e-09
4.47681866614e-12
5.73733133015e-07
8.11518146485e-12
6.90610557933e-07
5.76427913611e-10
8.97205907737e-13
5.06421317943e-09
4.84580761618e-07
0.0001384878299
2.39865163307e-12
1.17239343546e-10
0.00027548666584
6.20632885377e-11
8.53008510748e-07
1.61335609505e-06
0.000107863507023
3.9506439927e-06
0.000268571853401
6.549650725e-05
1.17660244318e-06
2.38202003235e-12
2.57193270589e-05
1e-15
1.87799014613e-11
8.37842891091e-10
8.46299091531e-06
1e-15
1.57967118771e-08
5.60003132406e-10
9.03018359893e-05
7.83523922461e-05
1.15126442197e-09
0.000202218863698
7.58685632375e-07
2.41539571035e-13
1e-15
3.97018141452e-15
1e-15
1.00570405342e-14
8.39629483564e-15
1e-15
1.43322008056e-11
2.4881315081e-13
7.13075120146e-10
1.48058551251e-11
5.33079799315e-09
2.70944009573e-10
2.05019618025e-14
5.73713891936e-11
4.3162931575e-15
3.98263921225e-06
8.74279281877e-05
8.0966317034e-05
4.73936716716e-06
4.8340009325e-05
1.13399340374e-06
1.08608710217e-06
3.24851197555e-07
2.24501857471e-09
5.8340019865e-05
2.80263625376e-05
1.16253694371e-07
1.02191472772e-12
3.0293995083e-10
8.83791032995e-06
0.00141886188399
0.00265169253521
0.00266635849161
0.00561835076912
0.00572346888031
0.00346676904073
0.00669741421325
0.00158973456667
0.00389641157506
0.00586160087551
0.00608404306796
0.00695050266026
0.000186700075855
1.05949398e-09
7.26876653786e-08
5.69588494281e-08
6.09250455588e-06
3.78844069832e-07
5.19603618216e-10
6.1802332271e-08
0.000434286508792
9.141636836e-09
0.00231302202804
0.000167057643182
1.36218531381e-08
2.30353105384e-11
1.15839814318e-08
2.0461508139e-10
1.09943780777e-10
1.96466391841e-11
1e-15
7.70912174046e-11
1e-15
2.48361807138e-15
1.17872195405e-12
1.69643840444e-09
1.93496432558e-11
1e-15
3.67577461858e-11
1e-15
4.00283197777e-15
1e-15
1.35586487821e-09
1e-15
1e-15
5.12030979523e-09
1.55694781494e-14
1e-15
1.9845286277e-08
1.27666515796e-10
6.75047561659e-11
4.50049259297e-12
5.61073348392e-12
1.4872587539e-13
2.01856149181e-13
8.68626333117e-06
1.12047316495e-12
2.76847044734e-11
1.91125449992e-11
4.11014014414e-09
1.28648509319e-13
5.53565334058e-14
1.99310083992e-10
4.2362947191e-13
7.16153191704e-14
1.02928954413e-11
5.40419288183e-15
7.79167097668e-15
1e-15
1.2022980633e-10
1.15374317289e-09
1.52561492636e-11
2.0317214607e-14
3.27790617883e-15
2.6839745116e-14
1.69257355414e-13
7.38533059806e-12
1.28670168963e-09
2.41824552529e-12
8.25195811596e-15
6.67597546819e-12
1.03901226791e-12
2.05827614466e-12
3.94631884019e-09
7.31184722367e-10
7.9991167862e-10
2.48042107511e-14
3.47428262108e-13
1.4910014724e-13
2.84186237712e-12
6.16231683641e-10
2.3567520482e-10
3.33649714736e-11
1.01149454963e-14
3.67656455797e-12
3.79179705205e-11
1.83084168238e-11
1.35474017487e-10
4.8730456314e-11
1e-15
7.7271912136e-12
1e-15
1e-15
9.99349210703e-15
1.1119393871e-10
1.15749226712e-09
1.5897456483e-09
2.63247475647e-11
2.26171356661e-14
7.31366901051e-13
4.90202003597e-12
4.39281622779e-09
1.05441818093e-10
5.48016189348e-11
1e-15
1e-15
1e-15
1e-15
7.79792236084e-08
0.000176460740374
0.000284315904911
4.20463677073e-08
0.000159637228118
0.000314439865381
1.86466951962e-07
6.48884944463e-10
0.000150052508708
0.000249687410083
2.9619492098e-09
0.000146755577239
0.000213973263658
1.54007805254e-09
7.48619529604e-09
2.96741184904e-09
1.6187261023e-08
0.000448038311871
0.000363403156185
0.000407673321846
0.000391936951783
2.534476232e-09
2.38842873583e-09
2.52989281379e-09
0.000235304694461
0.000306280762532
0.000241884661436
0.000317044716084
1.78263735067e-10
5.08914790906e-11
9.55955405476e-15
2.17850677909e-15
3.04679916268e-10
6.63789152753e-06
1.36584941078e-05
7.59620666125e-05
0.00289502055853
1.39684559551e-05
4.04544816467e-05
0.00259141989564
0.00347920599482
7.87500448389e-05
5.49204551473e-05
0.00120360184247
3.16525426393e-05
5.19203207546e-05
0.000939427082859
0.000876992457002
0.000127777832038
0.000106423460287
0.00120000917452
0.00152981073999
0.00084107887485
0.000562859038864
0.000233187849659
0.000433134724562
0.00043310384238
0.000522740818886
0.000504658622413
1e-15
3.56841842651e-15
8.93631469338e-15
3.04062880659e-05
3.61643294433e-05
1e-15
9.26859875199e-13
2.01012820583e-12
0.000342545945612
0.000270315388871
0.000247699118213
1.41594647162e-05
0.000198624364218
0.000153629253464
8.99897209813e-05
0.000239410026546
1e-15
8.07143175042e-14
1.0961169177e-12
8.28279348371e-09
0.00204891578018
1.40335504625e-08
0.000112537005272
6.67447690969e-09
5.61408800225e-10
0.00163247715016
3.96735482224e-06
8.27394907367e-05
0.000274697738933
1.37927897301e-05
0.000380046171945
0.000163262702142
2.69777502283e-13
3.5493634106e-13
1.20203606811e-06
3.98682444264e-14
1.59630457964e-08
4.83587282829e-12
8.69967394648e-09
7.67888410915e-12
6.9892759461e-09
4.48475640901e-11
7.59186621959e-13
3.32688960232e-13
1.43229622049e-12
2.86826628374e-07
3.39587446901e-08
1.18973978674e-11
6.54746653693e-06
6.25650712378e-13
2.19616586292e-09
4.85144593054e-13
2.67903995524e-08
5.00386429962e-12
9.47469751562e-12
4.20768727591e-07
0.000519224355757
0.00047760357318
4.22028451623e-10
1.33912859278e-11
3.58149811717e-07
3.53896725145e-06
4.77656577739e-12
1.3465148477e-10
4.50381280155e-08
7.89327140485e-12
8.8865708679e-11
4.39819031884e-10
0.000507755412165
0.000541318108132
0.000565177800081
2.37036731603e-05
3.20366573649e-09
8.9622653516e-11
2.95323879639e-07
1.04635212235e-05
2.11425944254e-08
8.67675298135e-08
8.507982275e-08
0.000243096591127
5.10858632448e-05
0.000159903512639
0.000135649409825
5.02090712265e-07
2.54806485652e-07
0.000467157892398
0.000378941160513
0.000141176330703
2.40158554125e-07
3.72103373448e-07
2.96299055316e-05
2.05892215303e-05
8.24262732011e-05
8.54265195831e-06
3.4310967601e-06
0.00025233591802
0.000308265547853
1e-15
6.68610768717e-12
1e-15
2.76695940167e-12
3.23265187443e-12
5.04947004404e-14
6.12078500664e-10
0.00041996175963
0.000294792527553
0.000331592026502
2.56447580879e-08
0.000180362831135
0.000227278752273
3.01102213779e-05
3.64334335525e-05
3.63032905404e-05
5.62419034371e-05
4.47175777444e-05
2.01241747714e-05
1e-15
4.36170986856e-13
5.39431289769e-15
0.000287393599895
0.000206540309858
0.000270543490229
0.000233276876692
2.56234382875e-14
9.05872840938e-15
1.68424914906e-12
3.41052191486e-10
3.07756655745e-09
1.10948489642e-09
5.80962955434e-13
0.000134959479675
0.0001351173744
0.000110595668184
2.16544493819e-05
4.70817847673e-05
0.000111611478776
9.98620482412e-06
2.31458678278e-05
0.000161643377228
1.87124689478e-13
1.24328441531e-11
4.35819428905e-12
2.78396088343e-08
2.95671087434e-08
1.45830774495e-08
1.8061660348e-09
0.00875320642851
0.0101645579873
0.00864308795811
0.0091665488722
2.34885311194e-06
0.00916011689511
0.00929823993541
2.27447960946e-06
5.95267709742e-07
4.18442446001e-08
7.77706165958e-08
9.37275096361e-05
3.63123627386e-06
0.000405234058329
0.000588827946514
0.00931570940059
0.00132845008244
3.11502728485e-05
0.000237792743944
2.29284026345e-06
0.00920151793685
0.00922677186122
2.21248519415e-06
0.00216215461752
0.00328230259633
0.00276667086717
0.00235599130997
9.40860646686e-09
1.26692544394e-13
8.41843664466e-09
6.87026725793e-06
1.97362243721e-12
5.89707096331e-13
5.42229859762e-10
2.91744768066e-13
9.61971633665e-08
0.00349279745475
0.00401310498955
0.00320028171922
0.00455829156875
8.3814746875e-09
1.30217608858e-10
8.10152068558e-14
1.88045052755e-11
8.71745850976e-14
0.000155882496173
0.00702868466323
0.00992018646587
0.00725072265415
0.00968453627976
9.6490769328e-08
0.0024618722539
0.00050510958333
3.99659223645e-09
0.000524414254649
0.00562605209903
0.00183660795582
0.00350886557352
0.00231611976675
0.00336574204379
0.0106258972131
0.0103974753637
0.0101135307268
0.0102602962715
0.00595091840095
0.00455198766047
0.00543767781549
0.00472481435177
0.00487260058372
0.00524032613452
0.000937641395796
1e-15
4.35865467652e-13
1e-15
0.000129024750768
8.238697124e-05
0.000281174743374
3.3064330239e-07
0.000191808531445
0.000361347644666
7.7334902749e-07
0.000340102545258
6.56467576827e-07
0.000203417627115
0.00102158951895
0.000836472107959
0.000777813781881
5.21299922343e-05
9.25046104594e-07
0.000386918556673
4.68554788826e-05
2.23077420784e-06
0.000467659970789
0.000978079296314
0.000666297385259
0.000145886020055
0.00060321837585
0.000481133688896
5.61339914423e-05
2.12475719002e-06
0.000350923748447
2.16601910079e-06
5.75583542097e-05
0.0141442430174
0.000924574880314
6.80509894407e-05
3.57898024367e-05
0.0143119765101
0.00129919387108
0.00147232740265
0.000144253928186
3.84674990646e-07
0.00205412751864
5.8268928119e-06
0.00197314861404
0.000180999638162
8.48709168267e-07
0.000168880302784
0.000195121565883
0.000123414054067
4.25123024286e-05
0.000122749265811
1.12095781916e-07
2.80941819523e-05
0.000186604783262
4.55155198118e-06
0.000920523744413
0.00208632217752
0.000265323354912
0.00179088919684
0.00196378918217
0.00176720073725
1.42619618063e-09
0.00012679808533
8.6386654038e-05
7.8412517103e-09
0.000163907968948
3.00567913701e-09
6.87285934404e-05
0.0012499659314
0.00145836749839
0.00148082130398
6.72196529179e-05
4.18561362423e-07
1.28563082784e-06
4.51775052095e-05
2.01079388092e-08
1.91492561746e-05
0.00151896231699
0.00124944928576
0.00150319266226
0.00143719426108
4.56129226999e-05
0.00150264576025
0.00168311001827
6.50303615707e-05
9.09516388506e-07
1.54374178103e-06
3.76440287874e-08
2.77362147713e-05
1.9590383075e-05
0.000477891665042
0.00060925089309
0.000781417653034
0.000758159594706
1.44707677885e-07
7.07714302523e-07
1.65812117276e-07
0.000489389928587
0.000468946815966
0.000442226705741
0.000517574587188
9.96416321113e-09
4.07405335454e-07
1.205633859e-07
0.000443281762445
0.000332282099944
0.000373940555069
0.000405502021522
0.000864785629182
0.00106288129942
0.00089003538019
3.20900711588e-07
4.02752496037e-07
3.25191576343e-07
0.000493366476416
0.000504917009976
0.000526851471089
0.000462401299163
0.000545775141568
0.000669720068569
0.000723544242072
0.000925311341481
0.00107941918876
0.000909821513402
8.71956808225e-05
0.000372742068974
1.73294783191e-08
2.01770623708e-06
0.000308062772036
0.000206164439187
9.98933809209e-07
1.07344462787e-08
3.45379598374e-06
7.16116152551e-08
0.000123487342445
6.09360348095e-05
0.000161803031048
2.81306487761e-05
5.04007970342e-09
9.76060848988e-08
8.46968400798e-08
0.00018301283347
0.000231456019799
0.00028794108306
0.000100462253499
0.00142636327019
0.00125390795831
0.00130057032621
0.000393112631732
1.58588300824e-07
1.0585862343e-07
5.65060157141e-05
2.75670612001e-05
4.58058233138e-05
1.57665985803e-09
9.32771799137e-05
0.00123641125235
0.000220031534873
3.13125262286e-07
0.000105693866418
0.00123607142447
5.08951821288e-05
0.00110489594915
0.00330612446982
2.64792390451e-08
1.95703991773e-07
2.21720922989e-06
0.0046316255241
0.00413591199312
3.09690378669e-07
8.68199313112e-05
0.00267155839699
0.00374302064768
0.000122543078072
0.00379359282569
9.22881668316e-05
2.8982355839e-05
5.77494809803e-05
2.26752431253e-05
0.00544177582993
0.00490582273353
0.0047214855903
6.16224081324e-06
1.50127854282e-05
0.000934033653425
2.90722249025e-05
3.73296467314e-05
4.18982816268e-05
0.000589879077978
0.000765162037859
2.0432575111e-05
6.75176727047e-05
0.000420309220118
0.000190046910751
0.00116442601599
0.000524538868987
0.000315079827289
0.000195200447127
2.19514912734e-05
8.32096880268e-06
0.000503746940126
0.00030695628774
0.000551769056789
5.05715152703e-06
5.65469774863e-05
0.00403044330326
0.00121748173828
0.00180173134546
0.000358149892083
0.000839099466717
0.00934752070142
0.00326514108754
0.000222682892344
0.00610538141981
0.000193759547221
0.00153037191728
0.00765611535573
0.00879000388315
0.00970629785394
0.0101275861004
0.00903714713603
0.000970477474827
0.000839707217779
3.29264211151e-12
9.32657594936e-13
3.13088091097e-12
0.000951576900222
0.000852832180513
0.000535005445311
0.000466139543159
0.000522631882398
0.000988395315827
9.79883188906e-11
4.74691794259e-12
0.000823215760537
2.00051413606e-11
0.00100087808126
0.000850040697812
0.000861267194387
0.000164383683943
7.67185204007e-07
4.75739359261e-07
1.01082939315e-06
0.000374985034705
0.000621827306779
0.000148483854723
0.00033218043491
0.000161919353586
0.000967409715227
7.22597533068e-09
3.13887282776e-08
0.000769792616968
3.28412845369e-08
0.00100820880136
0.000623744378977
0.000192808715155
9.4499678266e-05
0.000170813639523
2.4611526785e-05
0.000934831027036
0.000835151580531
9.53632242378e-11
4.61886757561e-11
0.000945765472322
1.21459743575e-09
0.000838684830772
0.000729859306112
7.97706454343e-09
0.000758706287323
7.68852661929e-10
9.68365182764e-07
3.33103892379e-09
0.000817704892627
7.15301137247e-08
3.70239217398e-07
4.13546643842e-10
1.08852124544e-10
2.74354698265e-12
1.06224777334e-07
2.03386892606e-07
4.02432073065e-05
4.07908944867e-05
1.28696294762e-05
0.000142532490927
5.59487875057e-05
3.5576383719e-05
2.81988699804e-09
7.2753707314e-10
1.6714138363e-09
0.000675520775538
3.9327238638e-10
6.08630150321e-06
7.60508913934e-08
1.8149986252e-11
2.02857532616e-05
4.06076555571e-13
6.11262751614e-08
4.42980734109e-08
3.05531895148e-15
2.79776941242e-13
1e-15
3.07801222907e-08
2.80761081317e-15
1.55523419825e-09
2.85505733759e-15
1e-15
1.88035116122e-05
1.56791354971e-08
1.66417706366e-15
2.98355280183e-14
0.000201403348038
0.00249276361877
0.000191087491517
0.00303694066091
0.000217459415486
0.000163343285436
0.00258781156412
2.15208574006e-05
0.00211520681614
0.00217859489924
1.54359436051e-05
0.000129919198779
0.00212765168511
0.00014108937609
0.00217567070006
4.04862553288e-05
0.00317430057844
6.90102920626e-05
0.00278334035474
6.14007534859e-05
0.00269075749142
4.43111929205e-05
5.7811014427e-07
0.000162541544603
0.000378792111024
7.64281406813e-07
0.000206388380713
0.000366332670347
3.77696141866e-07
0.000610612609537
4.10085225048e-05
3.02255352384e-06
0.000481297700049
5.77022592271e-05
4.24227318955e-06
1.68908250215e-06
5.26522587422e-05
0.000413015188469
0.000440107460203
9.30113130821e-05
5.17418961484e-06
1.07890756645e-05
7.67706266402e-07
7.93458372317e-07
7.51967901298e-06
3.52410735569e-05
3.19087229286e-05
2.50652174705e-07
8.33754959612e-07
1.00728482611e-07
2.84920142432e-05
3.03216933474e-05
4.67223600401e-08
3.24568804933e-05
1.74176057954e-07
2.61394806522e-08
1.25438104719e-06
0.000219812963426
4.87649888011e-05
2.13950920748e-06
5.41922212747e-05
1.15168451854e-05
9.72026697767e-07
9.87404701613e-05
0.000204938221546
0.000225064368978
0.000438191062036
0.000126155846547
0.000106195959007
0.000223969714627
0.000179126320808
0.00352711744476
0.00279092694213
0.000240625095628
0.000138720418977
0.00356813715805
0.000159496469181
0.000160871374516
0.00494415139472
0.000574415938098
0.0034357678629
0.000260994008949
3.1480695124e-05
0.00027676659303
0.00372250586896
0.000305514143775
0.00454461828303
0.000267519139905
0.00417351084783
0.000340184577439
3.65225466677e-05
0.000278208495158
6.46410748937e-07
0.000129580267011
4.61437372059e-06
0.000593018765322
5.54807015531e-06
0.000122817341408
0.00240864469226
0.000133653011599
0.00241297088619
0.000119636741817
0.00232948522991
0.000106286868646
0.000101392329453
0.00183928858702
0.00194393797201
3.6060129561e-05
0.00013649966036
0.00206286984636
0.000149561847035
0.00200332402986
0.000146895708884
0.00196327448056
0.00166065918003
2.29050763141e-05
0.00220425329279
0.00011795789563
6.75102217546e-05
5.7492930055e-05
3.67993919597e-05
0.0010970888824
0.00356922982973
0.00016196926542
3.55012541273e-05
0.00199593312221
3.50762159395e-05
0.00182772271506
2.33690552002e-05
0.00118405928666
0.000286427697177
0.0090390643394
0.000601678796734
4.64701010657e-05
0.00354360669184
6.34362897511e-05
0.00276136968061
4.99729495604e-05
0.000174771232912
0.00257739173837
1.37708921013e-05
5.71735916834e-06
0.00415003527486
0.00679268001326
0.00750026117281
7.86413259937e-06
5.62801558736e-06
0.00036646643429
0.000619830227181
0.0151956909916
0.0144759527607
0.0123070557757
0.000429707807598
0.00044584608119
0.000323490039208
0.00250666091259
0.0063952247621
0.0021287918797
0.00755052435299
0.000808300258213
0.000552219442237
0.000143467321351
0.00844948157856
0.0115894342943
0.00013703154917
0.00997876704964
7.03927002986e-05
0.000175742039216
8.82068780922e-05
0.000127652272508
0.0107175169468
2.48032691672e-05
0.000700396888099
0.00120439032703
0.000404099585436
4.00324950129e-05
0.0285288166463
0.0380588856081
0.0217512776968
0.0151171042171
0.022626897826
0.0219077095522
0.0114602096983
0.0326086235401
1.39356617768e-05
2.66497596826e-05
0.00470666581777
0.00618316009998
3.57428680004e-05
1.3008365247e-05
0.00563798939992
8.33940669779e-05
6.01112277325e-05
0.00548638868096
0.00653249019277
8.20099130392e-05
0.00597228095834
0.000278023937494
5.01019025324e-05
0.00435629200084
7.37962283683e-05
0.00479782897114
6.89498228503e-05
5.16646738188e-05
0.00513484473501
4.85039328614e-05
0.00737056887035
0.000268738057063
0.00747205214746
5.04492940937e-05
0.00660338389866
9.57652834009e-05
0.015643778207
0.0138800649685
0.0183661851857
0.0343360184882
0.0194202916638
0.0234619063013
4.43997686021e-11
9.80267533185e-10
2.41244728899e-07
9.7538078844e-07
4.24370396197e-06
9.22776637271e-12
1.00228471931e-11
3.46672298565e-12
9.23324963897e-09
2.32822388182e-12
2.65330733993e-08
1.11426728304e-13
9.01568329254e-09
3.25266089679e-12
0.000872843552006
0.000190504924772
0.000506216047413
5.77596613315e-05
0.0121408707159
0.0431763379849
0.000115593848735
8.05262312396e-07
0.00910432817631
1.79597804049e-05
5.82699949156e-10
1.02898872083e-06
0.0393008375945
0.0409448598133
1.33822567232e-09
1.60238136149e-05
0.000272898763769
0.000422744715673
0.0359043506333
0.025784075273
0.0341521785938
0.000351844869128
0.000207943135562
5.98709949739e-05
0.0312392654224
0.0256537992204
3.96115526888e-05
0.0330087889503
3.68855990138e-05
2.42009693855e-05
8.12247198486e-10
1.5842890287e-08
1.14502214148e-07
0.00111664997434
1.21737693694e-07
6.29282599274e-12
1.01615182745e-07
2.87589311175e-08
2.02390411443e-09
7.5388909091e-09
2.05903578627e-05
3.93547254878e-09
2.61732107123e-09
5.70241577379e-09
9.45884484141e-08
0.000123250832665
5.02715529893e-05
8.39558598408e-09
0.000199515153545
8.93869489495e-08
1.10446035738e-09
0.00833862211066
0.00371720309584
0.00210255641012
0.00645760674734
0.000979509150664
2.04316854616e-05
4.63493149653e-06
0.0389559587309
0.0371176050888
9.55051143689e-06
4.6081714319e-05
0.0277869109145
4.8769364903e-10
8.83467182871e-12
5.34679346072e-08
2.95981418822e-10
3.16191027132e-11
3.62545091502e-08
1.43360701999e-12
6.91629739565e-07
0.0275677736554
8.49066968063e-10
1.6688964507e-05
1.561853085e-07
1.35422569761e-05
0.0133473600348
2.9333267911e-07
0.025910130604
7.69645038625e-07
2.6863298453e-08
3.80405120982e-06
0.011409900237
1.56200956678e-09
3.29334980906e-07
1.74689422707e-07
0.0180014534261
0.000951213678509
8.83295410873e-07
8.03093148887e-08
0.000916010100588
6.59850745553e-06
0.000114238115549
0.000171578378418
4.46068337624e-05
0.000107753758806
6.54851795333e-05
0.0193519522617
0.000626310344151
0.00101337274806
0.000166052601858
4.30619151122e-05
0.00113330363391
1.43890672602e-06
4.83522823145e-05
2.31728115738e-06
2.6710377252e-07
3.55795204792e-05
0.000257883735178
0.000462125992324
0.000456267896151
0.0202828793892
0.0373633569207
0.0267915164899
0.000420194559963
0.000290851701454
0.0168727583449
0.00444526814361
0.0140404437028
0.00173561015996
0.0289115157281
0.000695079077324
5.40136731306e-07
0.00216872765318
6.48922126322e-07
0.000324993416832
2.62875368313e-06
4.66922690051e-07
0.000188310423261
9.42865017843e-05
0.00027590583855
5.05791030174e-05
0.000897683788061
8.06821513718e-10
1.34439583569e-08
0.000404553681491
2.08871838701e-07
3.59800468591e-09
4.5074223936e-09
3.50051299081e-08
0.000171498700905
8.257995782e-08
7.48885448459e-05
1.44991239113e-07
0.000668083430237
2.01513613756e-07
1.40141352846e-07
1.81471614804e-07
1.3158032518e-08
1.44501175394e-08
5.21834524549e-07
8.25276682671e-10
1.65961632364e-10
1.51939908217e-07
4.02704330463e-08
6.49199530396e-12
0.000134111590745
1.75158366559e-09
0.0016761774229
3.60290422703e-08
6.23700151486e-05
0.000504457654058
2.20254492179e-05
5.21290413844e-07
1.96755247918e-05
0.000545698439453
0.000546812067642
0.000732865193074
5.12309070999e-13
4.35191612932e-13
0.000724797219
4.6435754167e-13
0.000596887513229
0.000544295675939
0.0004678720115
0.000557417637726
0.000429782651104
1.8506446842e-12
7.30110756681e-13
0.000585317897114
0.000679196954833
5.69706910847e-13
0.000248822816272
0.000306270892528
1.54170377492e-10
0.00019352088153
8.0687573986e-13
7.90168513372e-05
9.5600540889e-13
0.000434046457127
1.24502705375e-05
0.000477328236517
1.1629289192e-05
0.000532217543787
0.00182506952323
0.00220127950831
0.00185983096021
0.000107155815352
0.000746023459408
0.00125209281546
0.00143584877986
0.00151964022069
0.00102911830594
0.00149254914561
0.0022798818354
0.00185322717579
0.00189528747471
0.000162849633629
5.16319844222e-05
4.59512945552e-05
1.44193276375e-07
1.92129586632e-05
0.000122772861633
6.8020235669e-05
3.71416354002e-06
4.75319426165e-05
2.26674487226e-06
3.90973775302e-08
1.40813211278e-05
7.27445599115e-08
6.96471157203e-05
5.44257000482e-07
6.39324801109e-09
1.60353172053e-05
8.91767105512e-10
2.31954528941e-07
2.45843217241e-10
4.66770426627e-05
3.41262235078e-12
2.44734505196e-06
1.09787216804e-08
0.00197715806817
0.0025641117768
0.0028178562557
2.61176276862e-05
0.00347529476459
9.38299390413e-05
0.00301744299555
0.000102592804623
0.000274183328696
6.60221183869e-05
3.71458695865e-07
1.1537876309e-06
0.000419130447496
0.000191985867189
0.00232089319553
0.000107440092599
0.00266183807727
0.00316723670505
0.00304069383214
0.000277981888438
5.84542437961e-05
6.52982477029e-05
0.0114329899714
0.00841555792086
0.00955994404238
0.00723970594856
0.00727590628141
0.00822802429492