/*--------------------------------*- C++ -*----------------------------------*\
| =========                 |                                                 |
| \\      /  F ield         | OpenFOAM: The Open Source CFD Toolbox           |
|  \\    /   O peration     | Version:  2406                                  |
|   \\  /    A nd           | Website:  www.openfoam.com                      |
|    \\/     M anipulation  |                                                 |
\*---------------------------------------------------------------------------*/
FoamFile
{
    version     2.0;
    format      ascii;
    arch        "LSB;label=32;scalar=64";
    class       surfaceScalarField;
    location    "0.01";
    object      meshPhi;
}
// * * * * * * * * * * * * * * * * * * * * * * * * * * * * * * * * * * * * * //

dimensions      [0 3 -1 0 0 0 0];

oriented        oriented;

internalField   nonuniform List<scalar> 
87349
(
-2.05534365713e-10
-1.3175318137e-10
-6.12647953202e-24
1.3175318137e-10
2.05534365713e-10
-4.48658957714e-10
-3.06323976601e-24
8.26411550475e-10
4.48658957713e-10
-8.26411550475e-10
0
-6.12647953202e-24
-3.06371030975e-24
-1.2254841239e-23
3.06323976601e-24
8.35855673626e-10
-4.48658957714e-10
-8.35855673626e-10
2.45078003031e-23
0
3.06371030975e-24
0
3.95214379938e-11
2.1455159799e-09
-8.53216695469e-10
-8.45365192971e-10
3.39540693486e-09
-2.59553351734e-11
-2.17819597247e-10
-2.45078003031e-23
5.714499678e-10
0
8.73639419776e-10
-2.19000112641e-10
-2.17819597247e-10
-2.19000112641e-10
4.48658957715e-10
-6.12647953202e-24
2.17819597247e-10
-2.45078003031e-23
-6.12647953202e-24
3.06371030975e-24
6.12742061951e-24
2.19000112641e-10
2.17819597247e-10
2.19000112641e-10
-2.17819597247e-10
-2.19000112641e-10
-2.19000112641e-10
-2.17819597247e-10
1.04351627224e-10
4.0708208565e-12
-2.22015549068e-10
2.23884759683e-10
-1.10291658697e-10
-6.12647953202e-24
7.98079181025e-10
0
3.06323976601e-24
3.06323976601e-24
-2.00110052953e-10
-2.00110052953e-10
-1.32816504718e-10
-1.33997020112e-10
-1.32816504719e-10
-1.33997020112e-10
5.3362704966e-10
-3.06323976601e-24
-1.9892953756e-10
-3.06323976601e-24
-1.9892953756e-10
-2.45078003031e-23
-5.62004393883e-10
5.62004393883e-10
-2.45078003031e-23
8.26411550475e-10
-2.07193145316e-10
-2.06012629922e-10
-2.06012629922e-10
-2.07193145316e-10
-1.22539001515e-23
7.84432931031e-10
-7.98079181025e-10
-5.4385430747e-10
1.8096006142e-11
5.39404551323e-10
-4.48658957714e-10
-7.98079181026e-10
2.45078003031e-23
0
0
2.00110052953e-10
2.00110052953e-10
4.48658957715e-10
-3.06323976601e-24
1.98929537559e-10
6.12742061951e-24
1.98929537559e-10
-8.26411550475e-10
-4.2029031831e-10
3.06323976601e-24
8.26411550475e-10
4.20290318309e-10
0
-4.22771746687e-38
-3.06323976601e-24
3.06323976601e-24
-7.98079181026e-10
7.98079181026e-10
-4.2029031831e-10
-2.45059181281e-23
3.06323976601e-24
3.06323976601e-24
4.2029031831e-10
-3.06323976601e-24
-3.06323976601e-24
0
-1.03317583977e-10
-8.26411550476e-10
4.10877387461e-10
0
3.06323976601e-24
3.06371030975e-24
-8.01122332054e-38
-1.02121109754e-10
-1.03317583977e-10
-1.02121109754e-10
-4.10877387462e-10
-7.98079181026e-10
2.49991646036e-37
3.06371030975e-24
3.06323976601e-24
4.10877387461e-10
0
-6.12647953202e-24
8.00842072362e-38
2.16639081853e-10
4.48658957715e-10
-8.64195296626e-10
-2.45078003031e-23
6.12647953202e-24
-6.27010997862e-38
0
2.1545856646e-10
2.16639081853e-10
2.1545856646e-10
7.88090256336e-38
-2.0837366071e-10
8.35855673625e-10
-4.20290318311e-10
2.45059181281e-23
3.9299415432e-38
3.06323976601e-24
3.06323976601e-24
-2.09554176103e-10
-2.0837366071e-10
-2.09554176103e-10
5.71573164022e-12
-2.2248550815e-10
2.16639081853e-10
1.04482321881e-10
-6.12647953202e-24
-1.13929110197e-10
-2.07197002943e-10
0
1.13929110198e-10
0
2.07197002943e-10
2.15371224374e-09
-2.13503860316e-09
6.75618088914e-11
-3.57076533609e-11
3.20251752489e-09
-8.21872409407e-10
-8.22009667744e-10
-8.03653057473e-10
-8.05510186381e-10
2.1898462495e-09
3.0984891129e-11
-4.24899043497e-11
-8.09897933348e-10
-7.89362910468e-10
-7.79431273342e-10
-7.88661445294e-10
3.14272456991e-09
-2.08377540316e-10
3.06323976601e-24
-1.13929110198e-10
-3.06323976601e-24
2.08377540316e-10
-1.12748572824e-10
1.12748572824e-10
-2.07197002943e-10
-3.06323976601e-24
-1.12748572824e-10
-2.08377540316e-10
0
-4.5810453163e-10
0
3.06371030975e-24
0
4.58104531629e-10
-2.45078003031e-23
2.07193145316e-10
2.06012629922e-10
2.07193145316e-10
2.06012629922e-10
-1.30602085872e-10
0
1.30602085872e-10
-2.05534365713e-10
-2.0670542995e-10
0
2.0670542995e-10
-1.3175318137e-10
-4.58104531631e-10
6.12647953202e-24
-3.06371030975e-24
0
2.45078003031e-23
2.09554176103e-10
2.08373660709e-10
2.09554176103e-10
2.0837366071e-10
0
-2.0670542995e-10
-1.30602085873e-10
4.86449584764e-10
8.73655685638e-10
-8.3259304111e-10
0
-2.16079798193e-10
-6.12647953202e-24
1.13017015517e-10
-1.13017015517e-10
2.16079798193e-10
-7.0897364758e-10
4.12685259008e-10
7.55282088216e-10
0
3.25168059319e-10
-6.55241658373e-10
6.70472297338e-10
1.2252959064e-23
1.118459293e-10
-1.118459293e-10
-2.16079798193e-10
9.49998798841e-11
1.93882953085e-10
3.75009128672e-10
-6.90515623086e-10
-1.9127724038e-38
1.13926989047e-10
-1.13926989047e-10
0
2.17819597247e-10
-2.055214648e-12
-2.18833738731e-10
-1.1669131022e-10
-4.86431086685e-10
-7.98112538146e-10
1.53173751894e-24
0
2.00113778704e-10
2.00113778704e-10
1.22193415836e-10
1.98933241331e-10
0
0
1.21031376545e-10
1.22193415836e-10
1.21031376546e-10
1.98933241331e-10
-4.58113060853e-10
-8.26426937024e-10
8.26426937024e-10
4.58113060852e-10
-3.06371030975e-24
0
-1.53185515488e-24
0
8.26426937025e-10
-4.86449584763e-10
4.86449584762e-10
-8.26426937024e-10
0
0
0
0
-7.98094040068e-10
7.98094040068e-10
-4.58113060853e-10
-1.53185515488e-24
0
4.58113060852e-10
-1.53161988301e-24
0
8.26426937025e-10
-5.24232583877e-10
-8.26426937024e-10
-3.06323976601e-24
-1.53185515488e-24
-3.13540531393e-38
2.11736197959e-38
1.31658570463e-10
1.30457721474e-10
1.30457721474e-10
1.31658570463e-10
-4.95895334542e-10
4.95895334542e-10
8.26426937024e-10
-1.53161988301e-24
0
0
-1.53161988301e-24
4.89316033428e-10
7.56417134872e-10
-8.73655685637e-10
-6.12695007576e-24
5.33636984999e-10
-8.73655685637e-10
8.73655685637e-10
-1.53161988301e-24
-1.53161988301e-24
-4.0910908666e-38
0
1.41083283202e-10
6.12647953202e-24
2.17823652723e-10
-1.41083283202e-10
0
-2.17823652723e-10
7.34446238507e-10
4.91092305138e-10
-8.64211386652e-10
6.12695007576e-24
5.33636984998e-10
-8.3587123601e-10
8.3587123601e-10
-5.33636984999e-10
-1.53161988301e-24
1.53161988301e-24
-1.53161988301e-24
-1.53161988301e-24
1.41083283202e-10
6.12647953202e-24
2.08377540316e-10
-2.08377540316e-10
-1.41083283202e-10
0
5.02260369553e-10
7.32635527163e-10
-5.05939821032e-10
-8.3587123601e-10
-1.22539001515e-23
-8.64211386652e-10
8.64211386652e-10
5.33636984999e-10
1.53161988301e-24
-3.94115193091e-38
0
-1.53161988301e-24
9.18971929803e-24
2.16643115349e-10
1.41083283202e-10
0
-2.1664311535e-10
7.39605779318e-10
-7.09549462243e-10
-4.67084834483e-10
-8.58729296253e-11
4.67514470352e-10
8.26426937024e-10
-4.00561166027e-38
1.41531144897e-39
0
7.49694678414e-40
1.32818977563e-10
1.33999514936e-10
1.33999514936e-10
1.32818977563e-10
8.26426937024e-10
0
5.62014857565e-10
-2.07197002943e-10
-2.0601646557e-10
-2.0601646557e-10
-2.07197002943e-10
-1.39924145581e-10
-1.41083283202e-10
-1.39924145581e-10
7.13303699921e-10
4.97768461891e-10
-8.26426937025e-10
-1.22539001515e-23
7.98094040068e-10
-5.62014857566e-10
7.9579739789e-38
-2.00113778704e-10
-2.00113778704e-10
5.62014857566e-10
-1.9893324133e-10
-1.9893324133e-10
8.64211386652e-10
4.86449584764e-10
-8.64211386653e-10
-1.53185515488e-24
-1.53161988301e-24
0
0
-2.14908711976e-10
3.06323976601e-24
1.13017015517e-10
2.14908711976e-10
-8.3587123601e-10
8.3587123601e-10
-4.58113060853e-10
-1.53185515488e-24
0
0
-1.53161988301e-24
8.35871236011e-10
-4.86449584764e-10
-8.3587123601e-10
0
0
-3.06371030975e-24
0
-7.46426694159e-10
7.94398971641e-10
6.12695007576e-24
4.34609720177e-10
4.95895334543e-10
8.73655685638e-10
1.96602174545e-38
0
1.53185515488e-24
-1.53161988301e-24
5.24232583877e-10
-8.73655685637e-10
-1.96391979775e-38
0
1.53185515488e-24
-1.53161988301e-24
4.95895334542e-10
8.64211386653e-10
2.1152600319e-38
0
-1.53185515488e-24
-1.96356947314e-38
-8.3587123601e-10
-5.24232583877e-10
-1.53161988301e-24
0
1.53161988301e-24
-1.53185515488e-24
-4.95895334542e-10
8.3587123601e-10
-1.53161988301e-24
-1.53185515488e-24
1.53161988301e-24
0
-8.64211386652e-10
5.24232583876e-10
-1.53161988301e-24
-1.53185515488e-24
-1.53185515488e-24
1.53161988301e-24
-7.98094040068e-10
7.98094040068e-10
-4.20298143489e-10
0
-1.53161988301e-24
4.20298143488e-10
1.53161988301e-24
3.06323976601e-24
-2.13126489888e-10
-1.06676913994e-10
2.1284705616e-10
1.04484267186e-10
2.47208053635e-12
-4.48667311074e-10
4.48667311073e-10
-8.26426937025e-10
3.13540531393e-38
-1.53161988301e-24
0
-1.53185515488e-24
-7.98094040068e-10
-4.48667311074e-10
0
0
4.48667311074e-10
1.53161988301e-24
-1.53185515488e-24
-8.26426937025e-10
-4.20298143488e-10
4.20298143487e-10
8.26426937025e-10
-3.06323976601e-24
1.40830495665e-39
0
-3.06323976601e-24
-4.10885037386e-10
-7.98094040068e-10
3.06323976601e-24
0
4.10885037385e-10
0
1.53161988301e-24
-1.09096985917e-10
-2.11262658032e-10
1.03326839902e-10
3.90631415861e-12
-4.08667856063e-10
4.09323035306e-10
-7.48367034248e-10
0
-6.46692097049e-10
6.77775192377e-10
3.43418192309e-10
6.12647953202e-24
1.118459293e-10
-2.14908711976e-10
-2.07442653342e-10
2.12345143451e-10
-1.0516944071e-10
-4.48667311074e-10
-8.3587123601e-10
0
4.59485964902e-24
0
-1.53185515488e-24
-1.96750666485e-10
2.01027434743e-10
9.6953019575e-11
-7.30137759764e-10
6.12695007576e-24
4.10811565236e-10
-7.70053732072e-10
-3.92485847063e-10
-6.12647953202e-24
7.98283922386e-10
3.04933467782e-10
-6.50782108071e-10
-6.12695007576e-24
3.17740839419e-10
-6.46502390701e-10
0
3.06371030975e-24
-2.09949144082e-10
-1.02492351366e-10
-3.58749309975e-12
9.39266853223e-11
-3.63180448734e-10
-7.09313014185e-10
0
1.41080656491e-10
-1.41080656491e-10
-2.17819597247e-10
-6.12647953202e-24
-5.62004393883e-10
2.45078003031e-23
8.35855673625e-10
-3.06371030975e-24
0
0
-2.08373660709e-10
-2.09554176103e-10
-2.09554176103e-10
-2.08373660709e-10
2.16639081853e-10
1.41080656491e-10
-2.16639081853e-10
0
1.13926989047e-10
0
2.16639081853e-10
4.46698183986e-10
7.93811724739e-10
-9.53490016321e-11
8.31448562923e-11
2.11779591162e-09
-8.54946327973e-10
-8.41677011427e-10
3.37013282589e-09
2.13690417527e-09
3.36198324197e-09
-8.1508751021e-10
-8.12293330583e-10
5.71460607345e-10
-2.19004190096e-10
-2.17823652723e-10
-2.19004190096e-10
8.73655685638e-10
-1.22539001515e-23
2.34611109791e-09
-3.20899042689e-09
-2.34193760802e-09
3.26535391223e-09
3.12775662725e-11
1.03845998782e-08
2.77001753539e-11
-3.36312910605e-09
-3.28174018469e-09
-3.2596626053e-09
-3.33802944114e-09
1.33449619382e-08
-3.15284673028e-09
2.35382182671e-09
3.2014468655e-09
3.34061238486e-11
4.02777818851e-11
1.27800137377e-08
-3.14799561937e-09
-3.22308377399e-09
-3.20054673644e-09
-3.12623732073e-09
1.03936907947e-08
-2.03655390823e-10
1.13929110197e-10
3.06323976601e-24
-1.13929110197e-10
0
2.03655390823e-10
-1.13017015517e-10
-2.05538223339e-10
-4.36154147021e-38
2.0553822334e-10
1.13017015517e-10
-1.17035633645e-10
2.0553822334e-10
-3.06371030975e-24
-2.12985372232e-10
1.17035633645e-10
-1.16548444239e-10
3.06371030975e-24
2.0553822334e-10
1.16548444239e-10
-2.05538223339e-10
-2.0202496469e-10
1.0806076805e-10
5.65267633354e-12
1.9718807103e-10
-1.13017015517e-10
1.12650054316e-10
5.9183367524e-12
-2.09344819691e-10
-1.12044487122e-10
4.46728294512e-10
7.83850683257e-10
-1.04605178327e-10
8.72915216887e-11
-6.63437609803e-11
3.28105511475e-09
-8.3681054727e-10
-8.38799299344e-10
-8.20932946334e-10
-8.22702774055e-10
-2.15081282228e-09
2.17837083428e-09
-7.84418015101e-10
-7.83971955168e-10
-7.75848982178e-10
-7.87308432997e-10
5.71460607344e-10
1.22539001515e-23
-2.09558077689e-10
-2.08377540316e-10
-2.09558077689e-10
-5.71460607345e-10
8.3587123601e-10
-1.22539001515e-23
3.28027686601e-09
-8.01839081188e-10
-7.94371444397e-10
-7.8803586488e-10
-7.92042044598e-10
4.63737103159e-10
-4.62981243964e-10
7.67606812668e-10
-9.44111472002e-11
-1.22539001515e-23
-2.15462577977e-10
-2.1664311535e-10
-2.15462577976e-10
5.71460607345e-10
8.64211386652e-10
0
-3.69227801001e-12
2.10065405731e-10
1.37961406852e-10
1.35828964368e-10
-5.82328923338e-12
2.08377540316e-10
-1.35828964368e-10
6.51743915757e-38
-4.99790566977e-10
7.64828731009e-10
-4.2675344718e-11
5.09056862067e-10
-1.85243310126e-11
-2.96903862093e-11
3.08995117387e-09
-7.70081392691e-10
-7.72912486244e-10
-7.67480182236e-10
-7.63083620487e-10
2.22166747451e-09
2.20938693858e-09
-7.7761029203e-10
-7.80028307286e-10
-7.78496362076e-10
-7.80340833615e-10
1.27823461782e-12
5.2281569115e-10
8.53536934408e-10
2.02566841914e-11
3.10336810426e-09
-7.75323322629e-10
-7.76002911982e-10
-7.70838632902e-10
-7.62777154189e-10
2.2386438605e-09
4.62295901176e-10
7.64336824681e-10
-1.01176334581e-10
-1.41645757529e-11
-5.06193883499e-10
7.73949964915e-10
4.2057193906e-11
5.02445340499e-10
3.06323976601e-24
1.36360771025e-10
2.03655390823e-10
-9.18971929803e-24
-2.03655390823e-10
-1.36360771025e-10
2.02516276016e-10
-3.65508762967e-12
1.3582959305e-10
1.63240462963e-12
1.34715925926e-10
2.03655390823e-10
-6.05193228858e-12
-1.96473503527e-10
-1.35845880933e-10
0
-5.95951516722e-12
2.07197002943e-10
1.34220505915e-10
-5.75849048809e-14
-1.16548444239e-10
0
2.10222568206e-10
1.16548444239e-10
-2.10222568206e-10
-2.11919152435e-10
6.12647953202e-24
-1.13929110197e-10
1.13929110197e-10
-3.06323976601e-24
2.11919152435e-10
-2.06709309556e-10
3.80032143525e-38
2.06709309556e-10
-1.13017015517e-10
2.1916307982e-38
2.09943188456e-10
-2.11652470385e-10
-1.22603667409e-10
0
2.06709309556e-10
-1.16548444239e-10
-2.06709309556e-10
-2.17798829503e-10
-1.14247761559e-10
0
2.16072068307e-10
-4.05367598392e-12
1.20028198738e-10
-5.97373535342e-38
-1.17035633645e-10
2.1370401825e-10
-2.14197007456e-10
1.14512297593e-10
3.19602982647e-12
-2.04897524058e-10
-1.27070949568e-10
2.02334101523e-10
1.08349041737e-10
-2.0202496469e-10
0
2.0202496469e-10
-1.08349041737e-10
1.12748572824e-10
1.49938935683e-39
-1.12748572824e-10
-2.03655390823e-10
0
-1.09223463913e-10
-2.07197002943e-10
0
2.07197002943e-10
1.09223463913e-10
5.97093275649e-38
-1.118459293e-10
-3.06323976601e-24
1.118459293e-10
-2.05538223339e-10
1.09223463913e-10
-2.03655390823e-10
6.12742061951e-24
2.03655390823e-10
-1.09223463913e-10
3.06371030975e-24
1.118459293e-10
6.12647953202e-24
-2.0202496469e-10
-1.118459293e-10
-1.09932389063e-10
-2.08769431264e-10
0
1.08349041737e-10
2.0553822334e-10
-1.09223463913e-10
-2.11919152435e-10
-5.97303470418e-38
-3.06371030975e-24
2.11919152435e-10
1.09223463913e-10
-1.1283240667e-10
1.50639584915e-39
1.12748572824e-10
-2.17614075411e-10
5.77875682168e-12
-2.08377540316e-10
6.12742061951e-24
2.08377540316e-10
-1.09223463913e-10
0
8.01262461901e-38
-1.118459293e-10
-2.06709309556e-10
-1.08349041737e-10
-2.13514041875e-10
-6.12742061951e-24
2.10968290186e-10
1.15200121226e-10
-1.12748572824e-10
3.06323976601e-24
-2.17430097269e-10
-2.71628146719e-12
1.15096122057e-10
-2.12550346065e-10
-3.06371030975e-24
-1.14256086086e-10
2.09950114691e-10
1.32554397599e-10
2.05170895948e-10
-1.30602085872e-10
-6.12742061951e-24
-2.02021173001e-10
-1.27068564648e-10
-2.05534365713e-10
2.05534365713e-10
1.27068564648e-10
-6.12647953202e-24
1.27068564648e-10
-2.02021173001e-10
-6.12647953202e-24
2.02021173001e-10
-1.27068564647e-10
1.41805085309e-10
2.11570190951e-10
-2.09927902963e-10
-6.12647953202e-24
-1.35821600933e-10
1.26227396487e-10
2.05121145935e-10
-3.86709065251e-12
-1.39796936741e-10
2.21660107607e-10
0
1.35821600932e-10
-2.10218622661e-10
-1.13926989047e-10
-8.45299796775e-10
-3.06323976601e-24
9.19113092926e-24
3.06371030975e-24
-2.45078003031e-23
2.10734691497e-10
2.11915206891e-10
2.10734691497e-10
2.11915206891e-10
-1.13926989047e-10
-1.15125276768e-10
-1.15125276768e-10
2.0837366071e-10
1.174868516e-10
-2.08373660709e-10
-1.174868516e-10
0
-1.174868516e-10
2.11915206891e-10
0
-2.11915206891e-10
1.174868516e-10
-1.99240226962e-10
2.01753102775e-10
-3.20619739665e-12
0
4.76967564244e-10
-8.082615147e-10
-8.73651619173e-10
1.64736647466e-37
1.22192278328e-10
2.17821624985e-10
-3.06371030975e-24
0
3.06371030975e-24
1.22193415836e-10
1.21030249855e-10
1.21031376546e-10
2.17823652723e-10
2.19002151368e-10
2.19004190096e-10
-3.06323976601e-24
1.18650517837e-10
-8.73651619172e-10
0
3.06323976601e-24
0
1.18651622374e-10
1.1983104422e-10
1.19832159747e-10
-2.17823652723e-10
1.13929110198e-10
3.06323976601e-24
0
-1.13929110197e-10
2.17823652723e-10
2.16079798193e-10
-3.06371030975e-24
1.1654844424e-10
-2.16079798192e-10
-1.16548444239e-10
2.17823652723e-10
1.1748903903e-10
0
-1.1748903903e-10
-2.17823652723e-10
0
1.27690550832e-10
2.22361758678e-10
-3.81629354005e-12
-2.23533896969e-10
-1.22702119e-10
-3.06323976601e-24
1.17701720164e-10
2.16079798193e-10
-1.17701720164e-10
1.18651622374e-10
-1.18651622374e-10
2.17823652723e-10
-8.18218173319e-38
-2.09095034947e-10
1.08349041737e-10
-6.12742061951e-24
2.09095034947e-10
-1.01350614021e-10
1.12748572824e-10
-3.06323976601e-24
3.06323976601e-24
-1.12748572824e-10
-2.17823652723e-10
-2.17823652723e-10
1.09223463913e-10
0
-1.09223463913e-10
3.06371030975e-24
2.17823652723e-10
1.04484267185e-10
-2.17823652723e-10
-3.06323976601e-24
-3.06323976601e-24
2.17823652723e-10
-1.04484267185e-10
1.03706675761e-10
-6.12647953202e-24
-2.02122878738e-10
-1.00239519831e-10
1.08026060647e-10
-8.31250249037e-38
-1.08026060647e-10
-2.17823652723e-10
-3.06323976601e-24
2.17819597247e-10
1.174868516e-10
-2.17819597247e-10
-1.174868516e-10
0
1.186494133e-10
2.17819597247e-10
-1.18649413299e-10
-6.12647953202e-24
1.08430386295e-10
-1.03978259184e-10
-2.19466501879e-10
0
-2.0837366071e-10
-1.03317583977e-10
0
1.03158086613e-10
-2.20800701568e-10
0
-1.17700615626e-10
-2.00851993619e-10
1.17700615627e-10
-1.53161988301e-24
2.00851993618e-10
-8.07519840975e-10
-4.86449584764e-10
8.07538339054e-10
1.79366203434e-39
0
0
0
-4.76986062321e-10
-7.98094040069e-10
3.06347503788e-24
0
4.76967564244e-10
-1.53161988301e-24
0
-4.76967564243e-10
-8.07538339054e-10
-1.53173751894e-24
-1.53161988301e-24
-1.53161988301e-24
1.53161988301e-24
-1.21214021196e-10
2.00851993619e-10
-2.00851993618e-10
-3.06323976601e-24
1.21214021196e-10
-2.0247485345e-10
6.12647953202e-24
1.13929110197e-10
-3.06323976601e-24
2.0247485345e-10
3.5477729464e-12
-1.96053476695e-10
5.65644872748e-12
-2.08131302177e-10
1.12650054317e-10
2.05181498637e-10
1.18266359291e-10
1.53185515488e-24
-1.22513514946e-10
-2.07935496992e-10
-1.13928049622e-10
-2.07195074129e-10
0
2.07195074129e-10
1.13928049622e-10
4.6755881063e-10
8.26426937025e-10
-4.67558810631e-10
0
0
-1.53185515488e-24
4.59485964902e-24
8.16982638039e-10
4.58113060853e-10
-8.16982638039e-10
0
1.53161988301e-24
-1.53185515488e-24
-1.53161988301e-24
8.16982638039e-10
4.67558810631e-10
0
-1.53185515488e-24
0
-1.53161988301e-24
2.07195074129e-10
-1.17487945315e-10
1.17487945315e-10
-2.07195074129e-10
0
1.14413550151e-10
-2.03653494979e-10
2.08820670784e-10
-1.13928049622e-10
0
-1.14825599147e-10
-7.16437232738e-14
1.12842722596e-10
0
-1.17701720164e-10
1.17701720164e-10
2.05538223339e-10
1.53161988301e-24
2.02023068845e-10
-1.19446308959e-10
-8.1698263804e-10
8.1698263804e-10
0
0
-1.53185515488e-24
0
4.76967564243e-10
-4.76967564243e-10
0
1.53161988301e-24
0
0
2.06414713284e-10
-1.24644459362e-10
-1.53161988301e-24
1.23014774793e-10
-2.11612505849e-10
1.53161988301e-24
1.53161988301e-24
0
-3.06323976601e-24
2.02023068846e-10
-2.02023068845e-10
-1.53161988301e-24
-1.21214021196e-10
-1.18650517837e-10
1.18650517837e-10
1.53161988301e-24
2.07195074129e-10
1.16547350525e-10
-1.53185515488e-24
-2.04001455773e-10
-4.67558810632e-10
-1.53161988301e-24
1.53185515488e-24
4.67558810631e-10
1.53185515488e-24
-1.53161988301e-24
8.07538339054e-10
-8.07538339053e-10
-1.53185515488e-24
3.06323976601e-24
1.53185515488e-24
1.53161988301e-24
-1.53161988301e-24
3.06371030975e-24
-3.06371030975e-24
1.53161988301e-24
-2.07619313402e-10
2.06698086091e-10
1.18882550408e-10
2.18042041049e-38
2.00851993619e-10
-1.25898681881e-10
-3.06323976601e-24
1.25898681881e-10
-2.00851993619e-10
-4.95895334541e-10
1.53161988301e-24
0
-1.53185515488e-24
3.06323976601e-24
1.23392995347e-10
1.24554671925e-10
1.24554671924e-10
1.23392995347e-10
2.0247485345e-10
2.01294316077e-10
2.01294316077e-10
2.0247485345e-10
2.0247485345e-10
-1.26915928013e-10
1.26915928013e-10
-2.0247485345e-10
0
-1.22403985935e-10
2.00851993618e-10
1.09371345141e-38
1.22403985935e-10
1.27069757108e-10
-2.02023068846e-10
-1.53161988301e-24
2.02023068846e-10
-1.27069757108e-10
2.05536294526e-10
-1.30603311493e-10
0
1.30603311493e-10
-2.05536294526e-10
1.31658570463e-10
2.03655390823e-10
-1.31658570463e-10
-2.03655390823e-10
-1.53185515488e-24
5.14786834098e-10
-8.26426937025e-10
-5.14786834098e-10
1.53185515488e-24
-1.53161988301e-24
0
0
1.28096465386e-10
-8.16982638039e-10
-1.53185515488e-24
0
0
0
2.03655390823e-10
2.04835928196e-10
2.04835928196e-10
2.03655390823e-10
1.29296951663e-10
1.28096465386e-10
1.29296951663e-10
-1.94444480539e-10
-1.25362383274e-10
4.06939871892e-12
-2.05536294526e-10
-1.27069757108e-10
1.27069757108e-10
2.05536294526e-10
1.12103877146e-40
5.88228954074e-12
1.21928919479e-10
1.95800763007e-10
2.0247485345e-10
1.31658570464e-10
-2.0247485345e-10
-7.65927577438e-25
1.28096465386e-10
2.0247485345e-10
0
-1.53161988301e-24
-2.02023068845e-10
-1.25898681881e-10
8.16982638039e-10
1.53161988301e-24
-1.53185515488e-24
0
2.11666133036e-38
5.0534108432e-10
-5.0534108432e-10
1.53185515488e-24
0
0
0
-1.29492313854e-10
1.53185515488e-24
1.22403985935e-10
2.08746363482e-10
0
0
-1.53185515488e-24
0
1.25754614147e-10
1.26915928013e-10
1.25754614147e-10
2.02023068845e-10
1.53185515488e-24
-1.22403985935e-10
-1.25898681881e-10
1.25898681881e-10
-1.53161988301e-24
-2.05536294526e-10
-3.06323976601e-24
1.31755654215e-10
-2.16079798193e-10
2.16079798193e-10
-1.31755654215e-10
8.31492485449e-12
2.18732940521e-10
1.25084076582e-10
-1.35269092755e-10
-2.16079798193e-10
5.43123358009e-10
8.73655685638e-10
1.53185515488e-24
-1.53161988301e-24
0
0
1.32817741141e-10
-2.17821624985e-10
-1.53161988301e-24
2.17821624985e-10
-1.32817741141e-10
1.34393801846e-10
2.28102249625e-10
-1.36359501631e-10
0
-2.17821624985e-10
1.41083283202e-10
-3.06323976601e-24
2.17823652723e-10
0
-1.41083283202e-10
-2.17823652723e-10
1.45293825376e-10
-1.88389206229e-12
-1.3702210545e-10
2.21329085538e-10
-1.41899119613e-10
2.17180829831e-10
0
1.40159653835e-10
-2.19133642063e-10
1.31754417793e-10
-2.06707369753e-10
3.94045128168e-38
2.06707369753e-10
-1.31754417792e-10
-5.43123358009e-10
5.43123358008e-10
8.3587123601e-10
-1.53185515488e-24
-1.53161988301e-24
0
0
8.45315534995e-10
-5.33636984998e-10
-8.45315534996e-10
3.06323976601e-24
1.53161988301e-24
1.53161988301e-24
1.53161988301e-24
-5.43123358009e-10
8.45315534996e-10
-1.53185515488e-24
0
0
1.53185515488e-24
1.40159653835e-10
2.08375600513e-10
-1.40159653835e-10
-2.14198889746e-10
1.53161988301e-24
-1.31754417793e-10
-2.10220595434e-10
2.10220595434e-10
1.31754417793e-10
-1.38728547968e-39
-1.35160469227e-10
-6.2204193848e-12
2.11919152435e-10
1.38541043203e-10
9.86098704095e-13
1.29970513648e-10
-5.98549278617e-12
2.08377540316e-10
-5.98549278617e-12
-1.37446643066e-10
5.62014857566e-10
-1.22539001515e-23
0
-3.06323976601e-24
-3.86478116461e-38
-3.06371030975e-24
8.3587123601e-10
-1.39924145581e-10
-1.41083283202e-10
-1.41083283202e-10
-1.39924145581e-10
-2.09558077689e-10
-2.08377540316e-10
-2.09558077689e-10
-2.08377540316e-10
-1.41083283202e-10
3.06323976601e-24
2.11919152436e-10
1.41083283202e-10
0
-2.11919152435e-10
-1.41083283202e-10
-4.29638109162e-38
2.11919152435e-10
-2.11919152435e-10
1.41083283202e-10
-6.12647953202e-24
1.3756252678e-10
0
-1.3756252678e-10
6.12742061951e-24
2.08377540316e-10
-1.34791188467e-10
-4.68627853038e-12
3.03924203512e-24
1.37026482176e-10
2.13733366837e-10
7.88090256336e-38
-2.14908711976e-10
2.14908711976e-10
1.31755654215e-10
9.49260916914e-12
-2.07163303778e-10
2.16694392825e-10
3.72465131818e-38
-1.35823488068e-10
-2.15020197279e-10
5.4312335801e-10
8.64211386652e-10
0
0
0
-1.53161988301e-24
8.55419961177e-10
-8.55419961178e-10
0
0
3.72254937048e-38
1.40129846432e-39
-2.16641098602e-10
1.53161988301e-24
2.16641098602e-10
1.32817741141e-10
8.55419961177e-10
-3.06371030975e-24
0
1.53161988301e-24
-1.53420823499e-24
2.23254382815e-10
1.43450003945e-10
1.53161988301e-24
-2.22817975745e-10
-2.12463946583e-10
2.15028923367e-10
3.06794520344e-24
-1.39413846437e-10
-6.14511580525e-12
2.13427939986e-10
-1.37025847945e-10
-6.16182850457e-14
0
2.1664311535e-10
3.06323976601e-24
1.41083283202e-10
-2.1664311535e-10
3.06794520344e-24
2.13427939986e-10
-1.41083283202e-10
0
-2.13427939986e-10
-3.06794520344e-24
2.13427939986e-10
-2.13427939986e-10
-1.41083283202e-10
0
-1.00997872733e-11
1.3092517442e-10
2.21879504879e-10
-1.94985670734e-12
1.72280652047e-12
2.03072553154e-10
1.36359501631e-10
2.03653494979e-10
-2.03653494979e-10
-1.36359501631e-10
3.06323976601e-24
-1.394291972e-39
1.31754417793e-10
2.05536294526e-10
1.32818977563e-10
-1.32818977563e-10
2.03655390823e-10
-1.53161988301e-24
8.26426937024e-10
4.59556546463e-24
0
-1.53185515488e-24
0
1.36360771025e-10
1.35200907979e-10
1.35200907979e-10
1.36360771025e-10
2.07195074129e-10
1.37551870401e-10
-2.10546805862e-10
-1.53161988301e-24
1.36360771025e-10
2.03655390823e-10
-2.03655390823e-10
-1.36360771025e-10
-2.29742982451e-24
0
2.0247485345e-10
0
-2.0247485345e-10
1.36360771025e-10
-4.0619925863e-12
1.26538382327e-10
1.93299088614e-10
6.12647953202e-24
2.0247485345e-10
-2.04119698549e-10
1.36360771025e-10
3.20816723881e-24
1.3756252678e-10
3.06371030975e-24
3.06371030975e-24
-1.3756252678e-10
2.03655390823e-10
-6.13637002964e-12
2.07197002943e-10
1.3756252678e-10
-6.13637002963e-12
5.62014857565e-10
1.24323199755e-37
8.26426937024e-10
-2.0601646557e-10
-2.07197002943e-10
-2.07197002943e-10
-2.0601646557e-10
-1.65899725191e-37
3.67617004546e-23
5.62014857565e-10
8.16982638039e-10
-2.03655390823e-10
-2.04835928196e-10
-2.04835928196e-10
-2.03655390823e-10
-3.06371030975e-24
1.3756252678e-10
-1.3756252678e-10
2.03655390823e-10
-6.12742061951e-24
0
1.3756252678e-10
-1.89175292684e-38
2.07197002943e-10
5.62014857566e-10
-1.22539001515e-23
8.16982638039e-10
-2.04835928196e-10
-2.03655390823e-10
-2.04835928196e-10
-2.03655390823e-10
1.18650517837e-10
-2.13425953168e-10
3.06794520344e-24
-1.18650517837e-10
3.06794520344e-24
2.13425953168e-10
-8.55419961177e-10
4.86449584763e-10
8.55419961178e-10
0
0
1.53420823499e-24
0
4.76967564243e-10
-8.64211386652e-10
-1.53161988301e-24
1.53161988301e-24
-1.53161988301e-24
1.53161988301e-24
2.80259692865e-39
2.16641098602e-10
-1.53161988301e-24
-2.16641098601e-10
1.22192278328e-10
-2.16641098602e-10
0
1.18650517837e-10
0
2.16641098602e-10
4.76967564243e-10
-8.55419961178e-10
0
1.53397260172e-24
0
0
1.22192278328e-10
3.06794520344e-24
2.13425953168e-10
-2.13425953168e-10
1.53397260172e-24
-1.22192278328e-10
0
2.15033609322e-10
-1.23701874811e-10
-2.12465904373e-10
-2.19366483631e-10
3.06794520344e-24
-1.17111896402e-10
3.1827862049e-12
2.19366483631e-10
3.79821948755e-38
-2.1664311535e-10
3.06323976601e-24
2.1664311535e-10
1.13929110197e-10
2.14908711976e-10
-3.06371030975e-24
-2.14908711976e-10
1.16548444239e-10
0
2.1664311535e-10
1.1748903903e-10
-2.1664311535e-10
2.1916307982e-38
3.06794520344e-24
-2.13427939986e-10
2.18935895033e-10
-5.82660640861e-12
-1.13929110197e-10
2.11719276691e-10
-9.20524940995e-24
-2.1670143241e-10
-1.18747790037e-10
2.11917179663e-10
-1.17487945315e-10
1.17487945315e-10
2.98651735209e-38
-2.11917179663e-10
-2.08375600513e-10
-1.53161988301e-24
2.08375600513e-10
-1.13928049622e-10
-4.67558810632e-10
8.3587123601e-10
-1.53161988301e-24
0
1.53161988301e-24
0
8.45315534995e-10
-4.58113060852e-10
-8.45315534995e-10
-1.53185515488e-24
3.06323976601e-24
-9.46577112651e-39
2.14854087043e-38
2.08375600513e-10
-1.17487945315e-10
-2.08375600513e-10
0
8.45315534996e-10
-4.67558810631e-10
3.06323976601e-24
-1.53185515488e-24
-1.53185515488e-24
1.53161988301e-24
-1.13928049622e-10
-2.11917179663e-10
2.11917179663e-10
1.13928049622e-10
1.53161988301e-24
0
-1.17701720164e-10
1.17701720164e-10
2.10222568206e-10
9.46844819603e-13
-1.14975464148e-10
3.02496316834e-12
1.9895283616e-10
-2.01687709667e-10
-1.21215158704e-10
3.06323976601e-24
-1.17701720164e-10
2.06709309556e-10
-3.06323976601e-24
-1.21215158704e-10
2.10222568206e-10
-2.10222568206e-10
1.21215158704e-10
-1.17701720164e-10
3.06323976601e-24
1.19764039334e-10
2.10222568206e-10
1.18650517837e-10
-3.06323976601e-24
2.11917179663e-10
-8.45315534995e-10
8.45315534996e-10
0
-1.53161988301e-24
-1.53185515488e-24
-1.53161988301e-24
-4.76967564244e-10
0
1.53161988301e-24
3.06323976601e-24
1.53161988301e-24
2.14156801765e-10
-1.53161988301e-24
-2.13584019631e-10
-1.22192278328e-10
-1.18650517837e-10
0
2.08375600513e-10
0
1.53161988301e-24
0
0
2.11917179663e-10
-2.11917179663e-10
-3.06323976601e-24
1.22192278328e-10
-4.6755663436e-10
-6.13165587459e-24
-8.55415979591e-10
0
-6.13589040688e-24
1.52741532611e-39
2.14280045834e-10
2.13427939986e-10
2.14282040603e-10
1.1748903903e-10
1.1628928373e-10
1.16290366286e-10
2.0718197795e-38
4.66651074755e-10
-4.65675197189e-10
8.64207364146e-10
4.58110928547e-10
-8.64207364145e-10
-4.58110928547e-10
0
0
0
8.23148749338e-10
1.22633117492e-23
-8.03591498583e-10
-4.67556634361e-10
0
-8.01122332054e-38
-6.12647953202e-24
2.15460572218e-10
2.1664311535e-10
2.15462577977e-10
-8.5541597959e-10
-3.06841646998e-24
4.35803822405e-38
0
1.15126348499e-10
1.13929110197e-10
1.15127420229e-10
-1.19440215969e-10
2.11719276691e-10
2.18280051915e-10
-2.20985889352e-10
1.23008714785e-10
-3.06323976601e-24