/*--------------------------------*- C++ -*----------------------------------*\
| =========                 |                                                 |
| \\      /  F ield         | OpenFOAM: The Open Source CFD Toolbox           |
|  \\    /   O peration     | Version:  2406                                  |
|   \\  /    A nd           | Website:  www.openfoam.com                      |
|    \\/     M anipulation  |                                                 |
\*---------------------------------------------------------------------------*/
FoamFile
{
    version     2.0;
    format      ascii;
    arch        "LSB;label=32;scalar=64";
    class       volScalarField;
    location    "0.01";
    object      nut;
}
// * * * * * * * * * * * * * * * * * * * * * * * * * * * * * * * * * * * * * //

dimensions      [0 2 -1 0 0 0 0];

internalField   nonuniform List<scalar> 
29768
(
4.51744154977e-09
2.02189256642e-24
7.8296109824e-24
3.2456886548e-25
2.13154688285e-23
7.97403219132e-19
5.60878504292e-12
1.31660875656e-16
4.37409793917e-26
2.48902431225e-24
5.91808196606e-19
2.91771184583e-20
2.5605726001e-14
2.39268301232e-20
1.32942985461e-14
5.8167829329e-19
4.90792148371e-20
1.67198005959e-14
1.09620240945e-18
3.13517402446e-26
3.66424258977e-25
3.84128643993e-19
6.72672295139e-19
1.26019698642e-17
1.50834644171e-24
5.51112522125e-09
3.46124561776e-09
2.34373543712e-25
3.76038746177e-09
2.29401895757e-22
1.07030000589e-09
2.2163947769e-26
1.89248847321e-26
8.57443349973e-10
4.57098061532e-12
6.80939636757e-24
1.52360151569e-15
8.76994908059e-11
2.72931746905e-16
4.80719255443e-19
2.55537192229e-19
4.67162540958e-16
3.36666970841e-13
4.05415069218e-17
6.61014311931e-21
2.52873512218e-21
5.69971468097e-21
2.1326314277e-20
1.8252869855e-12
1.78222240941e-27
1.76894453218e-22
9.8349262781e-18
6.67857184956e-21
1.67846022782e-22
4.08628512622e-12
5.62145232387e-26
7.20698852511e-21
3.62952998537e-24
1.53021542023e-25
1.1244167048e-09
1.26113376145e-23
3.07759048254e-18
2.58700337595e-25
1.30910486309e-23
4.53672456805e-23
3.64894880815e-24
5.3098310147e-14
3.5846512735e-15
1.98871315424e-26
5.61446518475e-23
1.86576092133e-14
1.6623489448e-17
8.26727967471e-17
2.40950122102e-20
2.61114021722e-24
7.29160972003e-16
5.59776919927e-22
5.9129300015e-20
9.10073068738e-10
4.89935850961e-10
5.1022842514e-18
3.04810398278e-11
2.37500363279e-26
1.04581114527e-19
1.34552315764e-26
1.70497130597e-23
3.81621974878e-10
5.06605660369e-12
1.93303743881e-20
1.29969947687e-20
6.53046805967e-29
4.98955305556e-19
2.07928834696e-15
2.36986713831e-20
7.07329260287e-25
1.45345615698e-23
1.1505248167e-26
1.605001864e-21
1.39980895758e-20
7.45894130834e-23
2.32292548166e-20
1.91155253796e-20
2.45953125572e-09
9.19781008233e-10
2.13656839384e-09
5.74357960061e-10
3.24225994846e-10
7.29859226425e-22
1.93857635442e-25
1.9660614754e-23
3.91253139854e-31
2.85134463055e-24
6.31479144829e-20
6.64965379371e-25
8.26360599275e-09
1.20932370467e-08
5.5960686004e-25
4.4323878799e-25
1.54876869487e-24
1.02331062608e-24
2.66426425738e-25
5.63567933833e-26
1.2018610602e-24
1.27447424431e-18
1.61540519562e-10
1.51989333732e-17
1.13473322241e-08
4.87231625604e-09
8.22990861272e-17
2.94712908418e-09
9.06964807347e-10
2.92624771854e-09
5.94514145175e-20
1.04105514034e-09
7.17515966226e-10
1.53515220333e-09
1.54428409575e-19
5.11157575226e-16
2.47984499542e-09
1.68453596111e-18
1.06382117786e-09
2.54658425577e-09
6.8860441482e-12
7.59194951552e-16
2.41571689909e-15
2.95070913287e-09
8.01289595646e-10
5.01125149535e-17
2.42103851514e-09
8.60764068326e-09
5.40113387912e-09
1.37885396062e-08
1.50864229286e-09
9.48553621619e-11
8.57462719875e-10
1.73342358444e-20
2.10517604307e-20
2.1829014332e-17
5.32854113165e-10
1.00696081599e-23
1.74568462243e-15
6.3328722068e-21
1.34414126416e-23
1.11453672353e-09
5.99619807054e-20
1.11004274913e-12
7.70206899209e-10
3.93523265879e-18
2.68346147959e-10
5.01931180661e-21
5.31458891121e-18
4.23617227717e-20
1.55498345521e-10
7.8186038862e-18
2.58675632468e-18
4.76623953315e-18
4.03873771884e-11
3.61389702919e-19
9.74178750348e-13
6.92419858386e-09
1.40708026316e-18
2.12373767918e-15
7.17474705957e-18
7.86973287144e-09
3.37143603063e-17
7.39184413602e-11
4.60610030339e-10
6.05509716e-09
1.16470072953e-10
1.13047182484e-16
4.19400200749e-18
1.63342289956e-17
3.67785559017e-11
8.56740358612e-12
7.7744162477e-11
1.7396373824e-09
7.86382508214e-09
1.1920705915e-17
8.07654966382e-22
1.01153005767e-08
5.85537388658e-16
9.23100759205e-09
1.71580411869e-11
6.58139092112e-09
6.51680571897e-16
3.34468273254e-16
3.32414214806e-16
1.0498794987e-10
7.69148952616e-09
1.99167330325e-20
5.27831867703e-20
8.19271291616e-09
1.15755175448e-08
4.3206715878e-08
2.99813504569e-17
2.25521900851e-14
1.59663363417e-15
1.35667512852e-09
2.32221603648e-08
4.22967257153e-09
4.52838153702e-21
1.43957815707e-18
1.16371937708e-08
2.72228990597e-20
1.34267361813e-15
1.32048957876e-08
4.381148718e-19
9.71543472862e-09
2.00606170549e-08
2.83137751712e-08
4.72313395225e-08
2.65294147957e-24
2.43437058954e-13
2.42697518289e-18
1.39705487513e-20
6.6523863867e-08
3.09706295389e-15
6.03735002399e-08
4.59580858428e-15
1.07943361208e-14
3.14684882483e-16
2.13171691311e-14
5.71672692366e-08
5.25299494581e-17
1.45584605491e-11
2.46160693327e-23
1.93625019225e-24
1.488112379e-20
6.71720660353e-16
5.6138614207e-11
2.04598281116e-08
4.13777985088e-09
1.01900044191e-07
9.3871816087e-17
2.21378135853e-16
5.11030240266e-16
1.14983669634e-14
1.06780272204e-11
4.33951342966e-08
1.71882909908e-08
1.22074234305e-19
1.82339279993e-23
2.50681947686e-22
2.60794207017e-08
7.90637845797e-12
9.53801585404e-17
5.85136125975e-08
9.32192031153e-17
4.03359873597e-14
8.74051427097e-12
2.57059638435e-16
2.43686274133e-20
4.62929970545e-11
4.88082174666e-22
8.69428723472e-19
2.59245781474e-20
4.61665269849e-21
2.90387640202e-20
2.92299057849e-17
2.9490334038e-13
4.11376136715e-24
4.24540767319e-16
1.61071146941e-29
4.04649580221e-26
1.31813654186e-19
1.74619707165e-18
1.68036517191e-22
1.19213871756e-23
5.11893752903e-09
7.3779031746e-13
5.52138722031e-25
1.10584821869e-09
4.81746520006e-22
4.42011307654e-21
1.08479136707e-09
1.07005627302e-13
5.766855568e-12
2.06578197969e-22
5.36421496444e-25
7.58632420413e-11
4.48322589319e-24
1.01071216901e-24
5.03220832126e-09
8.98914554989e-11
3.38797703359e-10
2.77445295401e-09
5.49506109445e-09
6.01914911001e-10
4.44882495769e-12
1.04117396293e-21
4.45700850436e-19
1.58203510581e-10
2.09316887407e-11
1.32750744519e-24
6.82785256122e-21
4.47994177042e-19
1.94526495211e-24
1.18615851163e-28
1.50165542798e-24
3.28170437481e-22
1.43617441963e-19
2.24697769151e-20
5.70779574392e-09
6.90161697568e-09
7.11434085096e-10
9.34220891382e-16
6.48996895112e-09
6.61582445754e-10
3.97857859463e-26
8.78918165e-19
3.74494748421e-23
2.35440897743e-08
1.53775368837e-08
2.15856006714e-26
1.72260640078e-13
4.25293144071e-21
8.04282587496e-09
1.39434188776e-08
8.84435533564e-18
6.90943126995e-28
6.09770207672e-25
2.39090685843e-19
1.11702213989e-28
8.21917516006e-23
1.05927091609e-24
2.49754992987e-13
4.66624522021e-08
1.16194732798e-13
1.03645013526e-17
2.57961909391e-08
4.26963910922e-08
2.24980225763e-16
2.78893495853e-09
1.89379690127e-10
5.49077286808e-09
5.72352746692e-09
1.85307422665e-08
1.33514646472e-08
6.36334964927e-16
2.10025619758e-21
7.28885612678e-15
9.84821843166e-10
2.16562903895e-08
7.44855212702e-16
2.536556538e-19
8.74039109802e-19
2.0717749316e-27
6.44858550502e-23
1.05228231715e-14
2.50612853489e-08
1.76230907059e-20
1.04734051852e-23
6.5557930489e-09
9.63443951858e-09
6.66202755539e-09
1.22468368739e-08
1.50526618004e-17
7.84974832208e-24
5.00905360565e-24
4.24649838482e-21
1.17379395248e-21
1.15389912461e-09
1.17679815609e-15
4.41834202383e-17
3.61479970046e-10
1.60193646797e-09
4.66452452587e-14
4.48434140284e-13
7.20245270034e-17
2.59185769278e-16
1.70754803513e-09
2.40659090312e-09
8.24312731828e-16
2.70287014726e-11
6.61462711762e-16
5.06065747163e-18
7.61252974331e-13
2.76034408584e-17
1.68225666506e-12
1.30522351371e-09
2.71402457151e-11
8.18341220378e-15
1.45273198032e-09
2.84658854385e-14
1.89127910179e-20
1.67860272097e-15
1.10266966504e-11
1.16030945584e-22
1.01231287561e-16
3.54405747044e-21
8.37740259873e-20
1.34816741844e-19
3.12732674126e-20
1.36821204493e-19
1.09543093712e-13
1.11878322325e-21
1.37986225805e-26
1.07158028151e-25
7.84562526431e-22
7.11654560828e-22
3.44851897623e-18
2.3944865503e-10
8.10568480296e-14
7.67212912044e-18
2.14973422646e-16
1.72560571229e-09
1.97896603765e-17
1.253870699e-09
1.91916825634e-13
1.40617801434e-14
1.47982847365e-09
2.29133570006e-23
3.76116429723e-22
2.87715780047e-21
1.14409932104e-20
1.72087261842e-23
3.03386127031e-22
2.92945476866e-21
1.36046988759e-21
7.35175307179e-17
7.5223216355e-14
3.27622653011e-10
2.49723803088e-22
2.86376642598e-19
6.51721026398e-10
1.31704302484e-19
8.14496558097e-13
7.71697442144e-13
2.55174404224e-10
3.64880525578e-16
6.4438263648e-10
9.89113186527e-12
3.27917708748e-13
2.10897020639e-20
2.77968568153e-11
3.82959500552e-24
7.21631637868e-18
5.02664998969e-20
1.28542605497e-12
1.56348826515e-21
1.61838723475e-14
5.99455581344e-18
2.0435449786e-10
1.85359600255e-10
1.70934940973e-17
4.78391481275e-10
6.93120118706e-13
1.38776166579e-22
1.36444402068e-24
5.79446226449e-27
1.74772958167e-24
9.17678181338e-25
1.26041760644e-24
4.43474439499e-24
5.43909284968e-19
5.49283887151e-20
4.15587554147e-19
4.61124687674e-17
1.44319894331e-17
5.22770524666e-17
3.13551003805e-21
1.36793331553e-23
8.90579784178e-24
3.14844594879e-12
2.06829714839e-10
1.9154339724e-10
6.57518724448e-16
1.05986270832e-10
3.23635509744e-14
6.61541982103e-13
2.48082099891e-13
7.70723006624e-20
1.38016041132e-10
4.98423965996e-11
1.0916090524e-13
1.58462174794e-20
1.57295530576e-23
3.51599678083e-19
1.32455241109e-09
6.27260362311e-09
2.3085973079e-09
1.32894910809e-08
1.06492621585e-08
8.71667946393e-09
1.58415437886e-08
2.96784652185e-09
9.21677400881e-09
1.38648022311e-08
1.4390895769e-08
1.64400982553e-08
3.48118014811e-10
1.70345570104e-17
1.75957891354e-15
9.50392146502e-17
8.22734976981e-19
1.56353316876e-14
2.81189551804e-18
9.19506979021e-16
3.73603705535e-10
5.71598980125e-20
5.66777087418e-09
6.72943719203e-17
4.9104343553e-17
1.4412017503e-21
1.23997813719e-19
8.27401676478e-19
2.4693985203e-25
6.02735004837e-21
2.46619518222e-24
5.86489391872e-23
3.80645981805e-28
5.26151623895e-24
3.73864108076e-20
3.7031268975e-18
2.97954390842e-20
6.15770825297e-27
7.35100655129e-20
5.86491996515e-26
4.80820976978e-25
5.37869077338e-26
1.59511940032e-17
3.61224944668e-26
6.0531492186e-26
3.43932064537e-16
2.80795945354e-23
4.0990586122e-25
5.13412096405e-17
1.47598634299e-18
7.30097761223e-18
8.73098871161e-20
7.69137514434e-20
5.12182351033e-21
1.99024300093e-20
1.4020189502e-22
2.84650125552e-25
7.43618364696e-25
6.22064708344e-22
4.03054330342e-21
2.6262247145e-23
2.65650535994e-24
5.5563074884e-22
1.06655536959e-20
1.21797122783e-21
2.60104044868e-20
3.83831391169e-23
2.02345586612e-22
2.76661951299e-23
3.66856305368e-19
2.89855363937e-16
1.32771021801e-19
1.39089275477e-21
5.22430165081e-23
7.61668264156e-22
5.55971457324e-21
8.57453351791e-19
2.55785968514e-16
5.49278061487e-20
1.07297315439e-21
8.91499901201e-18
4.24498159334e-19
2.91796433456e-18
6.04218760124e-22
6.00463889914e-18
1.35958065844e-19
4.83258348555e-22
1.01150745839e-21
7.57260934978e-21
4.14086844893e-22
4.05581285312e-17
1.06193801674e-16
4.5706417855e-18
1.92766374622e-21
3.91115799268e-18
1.308176919e-17
3.85949469313e-18
3.50269167428e-19
8.37882600126e-20
2.37012349672e-26
1.13291779472e-21
6.34589264834e-27
1.55494497012e-31
1.99862916133e-26
6.7323355055e-18
2.37489166955e-17
2.25788500825e-17
1.69287639171e-19
6.83750689898e-23
2.75341863927e-21
1.72429539507e-21
6.86417873523e-16
2.00523527244e-18
1.11687583283e-19
7.56227701822e-26
5.05490586134e-25
1.10905675581e-25
3.84576250039e-25
5.00648947393e-20
4.17447569257e-10
6.72595688712e-10
1.98724960457e-20
3.77648844797e-10
7.43858397074e-10
6.7079648991e-22
1.15533064974e-21
3.54974637536e-10
5.90676730755e-10
4.86106093842e-18
3.47175209814e-10
5.06189383083e-10
2.7395290124e-21
7.53805564388e-18
5.83450941733e-21
3.18398092946e-20
1.05990437892e-09
8.59688163978e-10
9.64415471733e-10
9.27188894266e-10
1.02121025686e-17
1.06743533959e-17
2.46299026613e-20
5.15904237969e-10
7.24556834194e-10
5.47381341246e-10
7.50020554851e-10
3.15134988158e-21
3.99221775158e-29
1.14698852007e-27
1.55947270979e-27
3.64463406923e-20
4.33458622237e-21
6.17990705825e-23
4.30306817677e-14
6.84816578382e-09
1.84121877631e-14
6.15792497676e-14
6.13003534834e-09
8.22996139413e-09
8.16395945305e-14
1.55385390881e-17
2.84721205389e-09
1.49740060403e-17
1.92677980961e-18
2.22229796435e-09
2.07460585898e-09
2.52321086025e-18
3.13875219143e-16
5.7190273804e-16
3.61886103478e-09
1.98965039265e-09
1.05080793669e-09
2.70640039834e-16
8.9159616752e-17
1.02459409512e-09
1.23664619317e-09
1.19386962387e-09
1.68045243896e-24
4.89256287149e-27
1.00976372211e-24
2.67956860655e-11
3.21429860079e-11
2.880351941e-23
1.23102479109e-24
2.77924724016e-23
8.10362643022e-10
6.39487359419e-10
5.60546479147e-10
1.23349644661e-11
4.24259547259e-10
3.1800861583e-10
1.60137456826e-10
5.24908630374e-10
6.69273729028e-24
2.43215617792e-22
9.21501158247e-22
3.3317380705e-18
1.82764061523e-09
2.46747256611e-16
9.51968156843e-11
2.00758352558e-16
8.79036527972e-20
1.5239620881e-09
6.13419497313e-17
7.57488117967e-11
6.73194531645e-10
2.29110366906e-16
7.08865956126e-10
1.49365243612e-10
1.51566678156e-22
4.9793864147e-21
2.8085287547e-14
1.74727389359e-26
1.37461805491e-16
3.56229835048e-20
1.01277837947e-18
1.9679799367e-23
6.55499691502e-18
6.84262099097e-22
3.70027758534e-21
4.35236322165e-20
1.91751784885e-20
8.81014321492e-16
2.26026081557e-19
1.12497057339e-21
3.22555881561e-12
9.17281115459e-23
4.63528710547e-17
5.98728569769e-21
1.72907294465e-17
1.67418921613e-22
8.59120109259e-23
5.30890364327e-16
1.17500359094e-09
1.12384852426e-09
4.25518322916e-19
9.22447389084e-18
2.32263502448e-17
5.48196526133e-19
9.6204429941e-24
3.37028935043e-20
1.43818530044e-21
6.02110720939e-24
4.36709109908e-22
6.6475039618e-24
1.20119561883e-09
1.28059395872e-09
1.33703810751e-09
1.97802189705e-11
4.68360366511e-17
3.65976769573e-18
5.03500136644e-14
2.92505488148e-12
1.43758888678e-14
6.70348444812e-15
5.61771655218e-14
5.19249210816e-10
4.4642615607e-11
3.30996135942e-10
2.41363504445e-10
1.59253822587e-12
1.05151935004e-11
1.12082827053e-09
8.96445520781e-10
3.54976726119e-10
1.47619716419e-16
3.50778805338e-16
2.55364467461e-11
1.73462762657e-11
1.46526780706e-10
5.59473010264e-12
1.43147669915e-12
5.96942181998e-10
7.29252137589e-10
2.16985979835e-23
7.6411237065e-19
8.57776153611e-23
1.12787283315e-19
3.16993640878e-20
1.04885037731e-22
4.41345901693e-17
9.93504114994e-10
6.97392795937e-10
7.84449070191e-10
1.77566785458e-14
4.32744080986e-10
5.57128196596e-10
2.53481083308e-11
7.54164245131e-11
7.75436678726e-11
1.23311286856e-10
3.90764376212e-11
1.69408909915e-11
7.02917068962e-26
4.1682847125e-27
3.73163592529e-25
6.79889198055e-10
4.4116786206e-10
6.12243342739e-10
5.27907888448e-10
3.26542392137e-21
6.13766404312e-22
1.10609481371e-19
1.69803215451e-16
8.11361607266e-20
2.02182046386e-17
2.94192260972e-20
3.23808227011e-10
3.19649138967e-10
2.61637907114e-10
3.84536902443e-11
4.1143504722e-11
1.98603356467e-10
8.69944505854e-12
1.94846059521e-11
3.45268774391e-10
1.78429868407e-22
7.74221227863e-23
2.16442858428e-22
1.91817580129e-15
3.31100785683e-17
1.62765906245e-16
4.16883897228e-16
2.14463812319e-08
2.43821684261e-08
2.18868322392e-08
2.19892077371e-08
2.69821126486e-17
2.16655870098e-08
2.19922174582e-08
3.19995340728e-17
1.84610954904e-11
1.52318212085e-13
7.41836401442e-14
9.04803075805e-10
1.12607517495e-10
3.48882316947e-10
5.20678455325e-10
2.34199510612e-08
2.47765196037e-09
2.17230218714e-10
1.60917823667e-09
2.28421997733e-14
2.17634915039e-08
2.18232114859e-08
3.20299509997e-16
5.11464600968e-09
7.76422196352e-09
6.54457124225e-09
5.57315180216e-09
2.58544451269e-16
1.23838589406e-22
2.97222966218e-20
1.50209883602e-23
9.42645336111e-25
1.02768309148e-27
1.55958895821e-22
5.55837219233e-27
1.37273854308e-19
8.26210940589e-09
9.49278501507e-09
7.57021533326e-09
1.07822798054e-08
3.78639875026e-18
4.36471699753e-17
1.5992897886e-25
9.44294225159e-21
8.65737700587e-24
3.73419236733e-10
1.73499185324e-08
2.34629616375e-08
1.77661862996e-08
2.29057135349e-08
1.04698562526e-15
2.191898567e-09
4.6260485813e-10
3.21828073587e-18
4.52919491486e-10
1.03996588581e-08
4.34458259516e-09
8.30011546074e-09
5.47883901606e-09
7.96158334588e-09
2.51317434423e-08
2.49414116684e-08
2.47847892174e-08
2.42672190634e-08
1.40760458565e-08
1.07673697331e-08
1.28621776984e-08
1.1176139968e-08
9.08723363832e-09
4.94229593745e-09
8.29021050691e-10
1.05018149006e-25
1.92941134498e-22
1.6354528671e-24
1.14080111766e-10
7.07608418879e-11
5.24423189262e-10
1.63385980777e-21
4.53755215042e-10
8.54825557769e-10
4.90019628821e-22
8.04567216543e-10
6.17176437018e-23
4.81218366543e-10
2.4167473172e-09
1.97882711178e-09
1.8400622681e-09
4.63188866647e-11
1.96155109414e-21
9.55258875008e-10
4.16323426688e-11
1.13249752373e-22
8.72282920356e-10
2.31381830152e-09
1.57625305548e-09
1.33471582269e-10
1.42702943368e-09
1.13821727165e-09
4.98765451478e-11
1.01082871558e-22
6.48770984356e-10
9.5980279897e-24
5.11421288347e-11
1.26167356517e-08
7.39309799387e-10
5.61082038701e-11
2.8963709805e-11
1.30179943686e-08
1.1288201589e-09
1.25431097425e-09
1.15389067474e-10
1.09334186893e-18
1.81080817557e-09
2.24240240738e-14
1.70501300842e-09
1.54165095718e-10
1.56387088105e-16
1.53627201898e-10
1.66230229239e-10
1.08796712353e-10
3.54995450989e-11
1.15642381693e-10
5.29563268888e-18
2.2155028742e-11
1.74423070207e-10
1.77416388732e-13
8.11490849546e-10
1.72901441953e-09
2.45751660874e-10
4.23659552487e-09
4.71032660012e-09
4.18055914043e-09
1.86848712436e-18
2.86943318022e-10
1.78818364671e-10
6.32818236979e-17
3.59367777926e-10
1.79717216774e-18
1.46803283255e-10
2.95699815934e-09
3.44999198349e-09
3.50310836692e-09
1.25372663089e-10
4.59928161168e-18
1.61366456849e-17
4.13478350268e-11
3.04486607156e-18
1.6458205346e-11
3.59333406445e-09
2.95577597971e-09
3.55602966785e-09
3.61378232468e-09
3.83363611284e-11
3.68122918342e-09
4.03721680149e-09
1.2140772167e-10
1.89805317932e-14
1.30616462218e-16
8.30696810865e-17
2.51750880254e-11
1.68373144352e-11
4.10465665628e-10
1.44130034699e-09
1.84858776122e-09
1.79356734456e-09
3.6040151141e-18
3.98786885307e-20
9.60757252897e-21
1.15772713031e-09
1.10936624711e-09
1.04615623868e-09
1.22440159973e-09
4.6570439618e-17
4.35743237528e-15
5.3655437178e-16
1.04865211823e-09
7.5194954016e-10
8.84615880577e-10
9.59278959441e-10
2.04580677061e-09
2.5144281613e-09
2.10553858298e-09
6.29726994399e-18
7.9027784956e-18
6.38148944348e-18
1.16713417497e-09
1.19445846646e-09
1.24634725704e-09
1.09388195435e-09
1.29113783139e-09
1.58434995713e-09
1.71167945642e-09
2.18898869731e-09
2.55355055192e-09
2.15234540321e-09
7.59603128875e-11
8.17238355311e-10
6.18925876525e-13
6.71823792311e-12
6.5801756133e-10
3.6610314502e-10
9.18343491814e-12
1.17381662416e-16
5.0552113242e-14
1.07931500391e-16
2.19756963495e-10
1.08436226999e-10
3.45608370421e-10
2.4253627306e-11
8.83191887813e-17
2.54285583832e-15
7.60730693496e-16
3.90911981418e-10
4.9438529664e-10
6.51605767738e-10
1.78764265401e-10
3.42218523065e-09
2.96632343802e-09
3.18716005977e-09
9.9628226291e-10
3.91396600877e-14
1.44701598237e-15
4.9379144837e-11
2.320647314e-11
3.85278519544e-11
2.64420141202e-17
8.12581930036e-11
3.13161671397e-09
3.90728007453e-10
2.07557448037e-12
3.9025818997e-11
2.96564095381e-09
4.38447801305e-11
2.79851880816e-09
7.82056849389e-09
4.38999988558e-16
1.41265723183e-15
1.45075051412e-12
1.09557298021e-08
9.78325492838e-09
3.03691303297e-14
1.2117753841e-13
6.31959405237e-09
8.85396169537e-09
6.75712783021e-13
8.97357923782e-09
5.02856225128e-14
4.30157715099e-13
2.89467797158e-12
1.80694512607e-11
1.28718700315e-08
1.16042586029e-08
1.1168266797e-08
1.38217992782e-12
3.84497018015e-12
2.24096595232e-09
4.51330863085e-15
3.28715164038e-15
1.88992621616e-16
1.45628676268e-09
1.81006473176e-09
3.89304791892e-16
1.92421400572e-19
7.8468178532e-10
3.5480277793e-10
1.08675065815e-19
1.24085321209e-09
3.86961226951e-19
1.24100268526e-19
5.61935008072e-18
5.94677254553e-18
1.24364690475e-09
7.26141260323e-10
1.30526846062e-09
3.46100808381e-18
1.09900959552e-17
1.91823318874e-14
2.27279382911e-09
3.45874167929e-13
3.1684152314e-10
1.56575289307e-14
2.36835052241e-08
6.41890087138e-16
2.04202507997e-10
1.54708931356e-08
1.66685833239e-10
1.93489088753e-17
1.87634418688e-08
2.21046286201e-08
2.29571739085e-08
2.42935001465e-08
2.16788475215e-08
2.29583519922e-09
1.98648022764e-09
3.77207252404e-22
1.71884353352e-23
3.34280910741e-22
2.2511233965e-09
2.01752919781e-09
1.26566027515e-09
1.10274596597e-09
1.23638848512e-09
2.33822218545e-09
2.15336418466e-19
9.5595450322e-22
1.94746731227e-09
2.58246551274e-20
2.3677517751e-09
2.01092554891e-09
2.03748341703e-09
1.45381504162e-10
3.63109849781e-13
7.74385777366e-14
1.16645920956e-13
7.00176537387e-10
1.15977325572e-09
3.51270324215e-10
7.85841062143e-10
3.83054770503e-10
2.28857801141e-09
1.96302085386e-16
9.03667138955e-16
1.82108700541e-09
1.38202744086e-15
2.38509353111e-09
1.47558706171e-09
4.36328367182e-10
1.95612108988e-10
3.64856311677e-10
2.07193509994e-11
2.24296255535e-09
1.97570321465e-09
1.12044987678e-19
5.75286430692e-20
2.23737569048e-09
3.93131809487e-17
1.98406162477e-09
1.83515109973e-09
4.2048175937e-16
1.85928865882e-09
1.47391828878e-17
3.22600130828e-13
5.29278525553e-17
1.96189247731e-09
2.08933448131e-15
1.11875942913e-15
1.32512556174e-20
1.10495443626e-20
9.1059395499e-23
2.56819137661e-15
1.40466889836e-16
7.14633458859e-11
7.24319301752e-11
1.1086508082e-11
2.53400510585e-10
4.88189656245e-11
3.06663006522e-11
1.08348491766e-15
2.59281645586e-19
2.61030108233e-17
1.71103752537e-09
6.04114811236e-18
3.68902330323e-13
1.48461570213e-14
9.59319250629e-19
4.79886080324e-11
2.43498711805e-20
5.76180006994e-23
6.3948279824e-16
4.07622887845e-28
9.69340260328e-27
3.50377746209e-26
4.18946314019e-22
7.73167621947e-29
3.94109179577e-16
2.1954592898e-22
4.82613485437e-26
4.51136813581e-11
9.23720553121e-18
8.88641073669e-27
1.65925035847e-24
1.46740453405e-13
5.89678476073e-09
1.40312700763e-12
7.18399242362e-09
1.64312484518e-13
1.17093005178e-12
6.12177182887e-09
1.01009979482e-13
5.00368798046e-09
5.15349917134e-09
7.06579857631e-14
8.18790325689e-13
5.03312607201e-09
4.63422753032e-12
5.14684572527e-09
2.82808976634e-15
7.50890209409e-09
4.82003309633e-15
6.58412440573e-09
4.28936822735e-15
6.36496381615e-09
3.09458772335e-15
7.74767687039e-19
3.03204430275e-10
8.96092923145e-10
4.37224375474e-18
4.88246151928e-10
8.78948030077e-10
4.994868701e-19
5.41581914683e-10
3.50475140139e-11
3.54038712159e-19
4.11776290912e-10
5.12699922166e-11
5.10587106523e-18
5.73067314862e-13
5.73899749479e-12
4.06088197233e-10
9.18069249173e-10
1.19349671692e-10
5.0876331723e-13
2.70522712008e-12
1.56247594547e-13
1.18353191267e-13
9.03486713719e-11
1.55056331919e-11
1.71494738294e-10
2.56571016659e-15
1.45662469049e-13
1.90916231061e-14
8.63813353146e-12
2.7851788771e-10
2.74977820293e-15
7.53421952158e-11
7.86743692426e-15
6.48909714358e-15
1.49330189838e-13
3.10999709553e-10
8.31561560388e-12
1.95057300533e-13
2.8823921667e-11
3.05838678813e-12
1.15557768132e-13
8.37864401113e-11
1.81204754755e-10
2.05906444751e-10
8.17274679366e-10
1.08353189876e-10
8.54693394287e-11
5.2728325678e-13
2.16253216724e-12
8.34344331768e-09
7.06857824944e-09
1.25399823822e-12
1.31010314401e-12
8.74324596392e-09
3.7697534183e-13
3.82977509952e-12
1.18611488521e-08
5.6787070145e-11
8.63889501399e-09
2.15121360875e-12
4.91000239072e-13
7.29082075628e-13
8.80560361463e-09
1.93798656494e-13
1.07501413431e-08
1.43598552117e-13
1.00127755874e-08
2.1535381694e-13
3.78286620063e-13
9.32257546302e-12
4.80501536456e-15
2.80588691037e-12
1.02555367365e-14
4.65127100774e-11
1.87785157102e-15
5.08721605603e-12
5.69780566389e-09
5.50936941285e-12
5.91280279039e-09
2.09802258086e-12
5.510557333e-09
1.2607923127e-11
5.69348069398e-12
4.41288783577e-09
4.59855346067e-09
5.90753668257e-12
5.52868999053e-12
4.87988575629e-09
9.52922123775e-12
4.73903081812e-09
6.73453887865e-12
4.97273973331e-09
4.17561671688e-09
8.53364829913e-13
5.2884863306e-09
1.10305322811e-11
6.55036286342e-12
5.54054063689e-19
2.38061089077e-17
1.00366361692e-09
8.44305377681e-09
9.55107688501e-18
9.52597928673e-18
3.72235227868e-09
1.14220887394e-16
4.32364603606e-09
7.9904904039e-16
2.20837145969e-09
7.86329449412e-17
2.28903301147e-08
5.31974764608e-10
4.27893665989e-18
8.38244615013e-09
6.67322335605e-17
6.53215453267e-09
5.25693446842e-17
6.77714349435e-17
6.09696766804e-09
5.28162701528e-12
2.21221817918e-14
7.74097787758e-09
1.60671497257e-08
1.77405902867e-08
1.4649409615e-13
1.28260515122e-13
3.94409211705e-10
7.09977167358e-09
3.59374152657e-08
3.4235734351e-08
2.91075103715e-08
1.15253542839e-09
3.7721239505e-09
1.19411426137e-10
2.29330125162e-09
1.192730858e-08
1.03509946819e-09
1.78594617374e-08
1.30647491376e-10
6.40298741355e-10
4.40395425763e-11
1.99854387914e-08
2.74106426916e-08
8.45598870078e-11
2.36019307526e-08
1.15196356385e-11
2.17100320384e-10
7.7990210158e-11
1.09638390194e-10
2.69442669756e-08
5.39843523629e-16
6.01556067845e-10
1.06490450152e-09
1.62499531522e-16
8.94204141452e-15
6.74523459229e-08
9.1247161878e-08
5.21660920789e-08
3.70339414411e-08
5.42637385088e-08
5.36635696503e-08
2.90209039491e-08
7.7092330917e-08
1.43381897855e-14
1.78502492126e-16
1.11334240665e-08
1.46255884545e-08
9.96952076592e-17
8.4472785195e-16
1.33361889084e-08
1.88796094031e-13
1.22941587362e-13
1.29776286271e-08
1.56711219616e-08
4.36758566063e-13
1.41268351405e-08
6.56878799465e-13
1.57043385018e-13
1.03046997963e-08
1.64738652005e-13
1.13490465309e-08
2.12616802028e-13
9.73823568069e-14
1.21461620195e-08
3.40278008119e-12
1.74338694168e-08
7.92555190328e-11
1.76738763841e-08
1.89229911094e-12
1.56194535947e-08
9.72351961278e-12
3.69975002494e-08
3.28274534304e-08
4.34336768719e-08
8.11749716433e-08
4.5925558201e-08
5.54788834174e-08
3.39665014176e-18
2.03705288991e-16
1.27882310384e-14
6.10736201888e-14
2.16086397354e-14
3.97999088557e-18
1.55769796708e-19
2.56728881528e-22
2.80398628079e-19
7.91627415224e-22
1.07489936708e-12
1.31687369475e-25
1.26591861965e-18
1.43249262277e-21
7.58382897749e-10
1.622472013e-10
4.46257831464e-10
4.76311820841e-11
1.10433639332e-08
1.06505465935e-07
5.18958574586e-11
1.08976023235e-13
8.49875854882e-09
1.5065983667e-11
1.75487222547e-16
9.71584167389e-16
9.62371603029e-08
1.01003685615e-07
1.12973792865e-16
6.77029553743e-10
3.58314403202e-09
7.112350358e-09
8.48785296232e-08
6.09660609055e-08
8.07391247623e-08
1.75428289239e-09
8.42339899402e-09
2.42492327481e-09
7.38569097894e-08
6.06581794269e-08
1.60464246599e-09
7.80377803926e-08
1.49400953469e-09
9.80339837579e-10
3.56848991061e-17
7.05170432737e-19
2.40018753232e-16
1.03478605377e-09
1.47488416628e-15
8.92660124885e-22
7.57372433477e-17
9.2375829051e-27
5.51677154199e-24
2.37468676252e-23
1.9437673463e-11
1.56378606672e-20
3.28410155114e-24
9.03657904941e-25
2.42469098005e-17
1.08686219543e-10
4.64019330724e-11
1.82291851878e-18
1.84889583038e-10
5.81647658115e-16
3.76396287825e-22
1.55657280083e-08
6.93940745231e-09
1.86002274246e-09
5.92147847905e-09
8.42654516621e-10
2.6692928797e-10
6.16828333733e-11
9.61013541101e-08
8.89917480736e-08
1.75187884597e-11
1.89908845322e-09
6.66331026865e-08
7.62718676829e-17
4.28263644005e-19
1.2312326329e-14
1.62535940329e-18
7.12798800194e-18
2.52959980829e-13
3.49303207025e-20
1.45461647114e-12
7.01306980574e-08
2.99854974201e-18
1.61252781683e-10
3.45047328749e-13
9.41627058303e-12
3.38180516194e-08
3.08616042474e-13
6.21349083091e-08
8.08699487439e-13
1.81830235948e-13
3.99459553692e-12
2.86915087199e-08
1.47385654308e-16
2.92042791867e-19
7.42016140093e-17
1.63784193741e-08
8.38804141818e-10
9.77756519564e-15
3.20978763294e-16
7.96135037662e-10
1.2228080463e-17
1.0213521328e-10
1.58921937839e-10
3.61078925209e-11
1.00920946711e-10
7.20085964036e-16
1.70738273144e-08
7.18529315748e-12
7.99543824121e-10
1.87020572971e-14
6.94050792366e-14
9.32956958455e-10
1.03243853231e-19
4.12029178075e-11
2.32764420259e-16
2.96811629745e-18
2.93422255559e-11
2.50350653535e-10
1.03350792222e-09
2.82181493304e-09
3.7818169878e-08
8.95781347586e-08
2.53375272634e-08
2.00897665842e-09
9.96561507286e-10
4.43001016589e-08
3.93015198543e-09
3.59020363146e-08
6.27217476603e-09
7.44632016347e-08
6.43804145938e-10
5.87042563347e-20
2.0087212439e-09
2.44264112447e-22
2.86500298858e-10
9.22793142235e-20
2.13447328613e-21
3.51221069413e-10
8.67355258683e-11
6.81144435047e-10
4.04579296012e-11
7.75601581814e-10
2.0398301928e-19
3.82532524394e-18
3.89795776229e-10
2.35832324801e-19
1.13140067179e-18
1.3016442031e-20
1.07688157331e-18
1.58249786457e-10
1.78088652112e-19
6.54301683504e-11
1.51489542771e-20
5.34393859689e-10
1.48413267806e-18
8.53760960155e-22
1.76040318033e-19
2.34192355873e-21
2.5779508921e-27
1.05246497728e-21
7.20541940457e-26
2.34998476629e-25
2.68700593349e-22
4.87146841482e-22
4.21122635372e-26
1.19094914172e-10
4.05839790044e-18
4.24889266204e-09
5.04588894021e-16
5.29093867167e-11
1.24530762265e-09
1.87668206547e-11
2.92490428619e-13
1.67645639147e-11
1.34711377504e-09
1.29359085659e-09
1.73372959638e-09
6.60945329645e-25
5.84806574507e-25
1.71464356608e-09
5.67329567139e-25
1.41205273161e-09
1.28763790335e-09
1.10684442753e-09
1.31868013282e-09
1.01673721635e-09
3.52594022678e-22
1.02011452309e-23
1.38468288256e-09
1.60676903299e-09
7.36086243437e-24
4.64560604148e-10
5.48405834553e-10
1.50506539731e-19
3.44195371499e-10
2.38848059401e-23
6.81265684196e-11
2.63920324336e-23
9.5164739468e-10
2.55898017957e-12
1.14497781268e-09