/*--------------------------------*- C++ -*----------------------------------*\
| =========                 |                                                 |
| \\      /  F ield         | OpenFOAM: The Open Source CFD Toolbox           |
|  \\    /   O peration     | Version:  2406                                  |
|   \\  /    A nd           | Website:  www.openfoam.com                      |
|    \\/     M anipulation  |                                                 |
\*---------------------------------------------------------------------------*/
FoamFile
{
    version     2.0;
    format      ascii;
    arch        "LSB;label=32;scalar=64";
    class       volScalarField;
    location    "0.01";
    object      omega;
}
// * * * * * * * * * * * * * * * * * * * * * * * * * * * * * * * * * * * * * //

dimensions      [0 0 -1 0 0 0 0];

internalField   nonuniform List<scalar> 
29768
(
422735.795362
1.31151871688e+13
2.64767842149e+12
3081010245.76
11092196311.7
1461990332.45
151113.512038
1912899.7154
6.8456601876e+15
401763853.843
83001978.801
3708014975.49
683241.181109
38034645254.1
1009332.22243
288522234.377
570257071.566
694863.697548
16012174093.3
31896156073
2729076952.47
2415707950.93
2490976065.73
237931767.592
1.36720699296e+14
422739.266075
422732.106338
1.44831727663e+13
422733.151161
237691065.078
422707.887931
45118316033.9
52840480359.8
422707.144524
1188903.74026
146855895.298
22622458.2024
1235549.18899
5390647105.26
63837155.5351
220547721593
575688625.648
1329357.00525
10986360883.5
88573237.6725
27466909.3791
87289604705.1
64107934.6234
627057.381879
5.42555440929e+13
2471278106.03
63391939.2851
2235081973.12
228442939.883
1295649.99158
3.99734535935e+14
105217128.71
5826113968.4
257282609802
422708.076935
234016059.49
81459154.1279
3865476208.1
2413500803.31
120060835.411
5910241646.37
1158740.99175
33335468.6499
50283772592.8
183485818205
12751507.0869
13430321.5932
100873360.926
14813732347.1
3.68214753704e+13
1489355374.86
418194233437
14007978.3618
422707.328334
394577.924103
12713171.1846
563101.738689
42105198754
39725061.7945
74320534308.4
8976532794.64
407946.379941
1160803.30818
10946638652.3
22328940888.7
2.53284367291e+17
81861887.4501
23188640.3527
5240809.8175
3013269269.19
455134092.249
88468545555
623052.235905
71438.3198211
13406728.3635
43049.1639916
5.31969938748e+13
422712.739891
405040.406721
422711.611922
536160.233066
1111663.99038
14955904.9585
5158424622.91
50863109.4456
2.55589003164e+15
350711727.122
150068.264996
240402073552
1196849.34989
1099391.10075
1786968801.5
2256120238.33
645674207.72
80724265128.4
3753381434.41
389262102312
832042931.678
3.55222214232e+12
1172443.21784
1295675640.74
1071279.10545
422721.166795
98881720.2219
422714.442864
394756.682094
422714.369934
1675521208.92
394649.948796
1093825.53687
422709.511444
5.10339419683e+12
76101569.1775
422712.810838
50949155769.5
422707.865304
416785.099659
27054.5047914
33655506.1287
22973724.1769
422714.455367
407947.794461
224497327.514
397681.481755
416821.499204
422738.881899
422768.178328
394686.185414
1130373.41712
410211.787634
354582048.945
7.75943420814e+13
6208575904.49
1090562.12469
99308730.2027
158935312.255
890301122.322
61613311586.7
422708.042429
392826521.626
6494277.20017
422706.839848
76931328.1712
456097.509536
6845000652.35
383311574.733
21110513152.6
468166.065892
3086494968.23
3127674093.71
389123744.681
397688.195993
3694854704.46
146787.592604
422736.267395
369413331854
184442103.593
219982462738
422739.569936
38914672212.6
1131024.41829
1145388.57409
397700.69102
424309.247751
61880126.9973
114086805.902
150561925.428
759674.94408
7489709.16785
1161852.7966
422710.225618
416822.026987
35461158151.9
217283816925
394834.905312
1673885234.84
422744.324612
3982942.66798
416806.75749
951200086.923
562971418.979
1199013258.36
2893091.22932
422738.94737
2.45254578463e+13
6040104491.77
422740.69804
422752.513669
422863.012675
4663602.35357
3867648.50771
405153015.79
1164289.64212
422793.196169
536177.487748
1493185425.08
598816923.557
422752.729097
1.23198259535e+13
86242384.3425
408106.889973
25395545640.2
422746.016638
422782.1523
422803.047293
536177.129859
17879503570.5
6326989.53197
3305849452.36
720946256.634
538576.916262
150568908.169
422922.994435
4484469.66338
2363508.82929
8501342.54913
79038407.0357
422911.791028
1859526310.08
1027885.47561
14759717105.5
84020136949.3
1787865075.02
211901904.215
1140063.38855
422775.611864
1183585.66522
395006.421537
11678238.4825
23930565.5889
45410173.7334
4927846.57106
303280.031407
408106.869331
1070820.73069
4722158353.94
6.39083586661e+12
527480667004
1135618.29687
1270246.40082
206120319533
422916.495466
12712028.876
10012157.9558
30241642.4523
669220254.156
1.11049315795e+14
1164302.07952
60950227055.7
896357363793
2.021159853e+14
886024580.733
930385802.083
93906444.5672
45203008.9494
6.4483900766e+12
1051919461.94
6.20843657594e+13
24712740328.4
1.30334854542e+13
172753986.685
209993662.914
1.13519428957e+16
407960.041003
906934.063211
846443834519
422708.012084
6143578983.67
1012958147.46
407945.462957
11226430.9476
955013.510681
85378562.0712
1864205678.98
298749.403318
223053672.473
167632445399
422721.725241
1129157.74347
1093012.91556
422713.839778
422723.341824
416789.255266
1216940.49898
261055298492
62937034.7878
2213049.73937
1941533.10121
25110534010.7
3.76287995466e+14
515033397.36
514068789.917
5.49052755314e+13
665931731.987
1689631065.61
42068963.8432
1124525997.17
416806.676722
397607.132229
422706.634583
14565170.2176
422726.816711
422706.460475
25134604638.7
1.36614169053e+12
106586707580
422786.385603
422757.859338
46327179642.8
4315540.83699
6369155675.56
394810.21762
422752.850076
3170072224.14
1.00984386892e+15
1639962050.32
2.84199119084e+13
9.7347828031e+13
2.63073864637e+16
2.46403170922e+12
11079579.5878
422875.086538
1859425.04662
4110135.26894
422802.187958
417039.548237
32614435.4124
536720.965709
1164276.6832
422723.326847
422724.13978
422768.873448
422750.782443
373754198.354
63984163464.5
7555423.36182
857854.822221
416869.529555
25561340.1868
1.95874652805e+14
735424035.061
482677912908
9605351993.32
18589635.9435
394561.801282
46495758870.1
282796589492
422727.046614
416809.508071
422727.417658
422746.924123
1.31429904046e+12
1.30746201591e+12
2.54983028574e+12
1.59973388582e+15
4261314101.08
441890.800784
931442925.465
59225879.3018
535442.439941
422709.744691
5401700.68946
1160883.06426
113659377537
61818170.1989
422710.113545
408073.217624
47834301636.9
1802665.07116
2373786.55269
7156351.31669
39917438.0479
16551665.607
15083467.3291
422708.708409
39912.9064932
13342563.2935
422709.223588
333088017.002
24061054.7709
61883932.2011
5520370.64229
1238926465.89
405447305447
88918615004.5
4.69140377147e+12
1425203251.96
2.3928425554e+14
9005169462.58
102515886.436
1.39654205949e+13
3.28735982338e+14
1.88644510967e+13
2704224348.39
7.691597062e+15
9.01072874444e+12
422704.986168
4884140.05114
484945927068
847956371.846
416782.272551
20445510617.2
394787.935857
1210967.61596
7418789.75377
422709.318224
2.1836275421e+14
4.95246335342e+12
1555986489.66
5.01471439119e+13
471573629447
2.27634191679e+15
196769692360
659482371.439
68884429.7404
6441904.30958
422705.294116
9605218258.78
409388637.573
422706.426034
471232050.642
1047283.13738
2090658.86051
422705.04109
10827226217.2
416789.401509
6621740.37735
3588102.78249
112947068.913
925260.26341
261124217.72
2602422.13281
16668017323.8
6583802.22076
639595.462459
976077.389753
93418620.1337
441888.174398
422704.797262
67351029.3107
422705.820678
1094594.73459
1740497500.32
732899250.425
685168223262
572170895.592
10959223765.7
6661518208.54
225492139.103
26350351.4312
4529773.33999
1715824049.66
321081.380391
369373745.586
5182847.86133
6538636.95339
4.19401944102e+12
484661030.285
1264953.97318
422704.872246
422704.818858
7207957721.87
456096.897699
35039214.4742
1641750.83601
1309450.37025
29128734388.6
422704.631914
562299.657512
1064975.54336
64489505.4008
1.92592853542e+13
2.51362867513e+13
1071201.01259
422741.925767
1154969.07255
422766.435141
537452.153506
397716.705665
422775.34959
535652.553112
422752.209323
422768.444715
422770.28238
422777.440398
536312.5949
62196743.9106
41309693.37
599319445.533
7.40518481204e+12
24229998.9154
184787668.988
67212466.7687
1162425.59257
159930950787
408100.8353
2.48249056222e+12
277406277.175
15983404498
93420852226.2
247298364.515
4.45224939891e+14
3259581578.37
405482910.359
1.31445203397e+12
2.62711298109e+12
472034668.067
31528085.4349
458109714.141
649416281.502
162398080409
500036912.351
17050531054.8
8324994477
18591884942.5
85000839.3067
27683580958.7
16520326261.4
14887561.5948
554476601.495
2439584535.39
386537177.756
86495729.7218
9245988.65401
51546196.4461
72948378.9131
29037680.6405
10142286.5995
6.19553917579e+16
3.9363171289e+12
3.7229721303e+13
30724367968.2
1.01974841472e+12
4898610107.84
20838103412.3
358709600590
39719407.3547
58798859.5575
395722236.712
140796011.118
38506750.2936
36145194.3538
327729971.029
3980409.94383
114905715.544
14607319.3188
62743432.48
35238103.4882
30443533.2397
8613098.98974
5030384.18059
44025889.524
7690740.5206
748847.583627
2447624.90735
705380.84386
6.53127492994e+12
121769973.957
5883517639.48
51327019.6476
343475729.444
19689401.6782
6862962231.63
15193789.9
2219293.41547
7299843.88177
5247256.17533
940019.443054
2898535.35631
4743734.16199
386771175.1
581590503.331
42191894278.2
6820610683
157582243416
6.4310957572e+15
500017326896
16516398.8959
48738739.6217
70408618.7955
155503069.767
330780443.812
265621395.388
2842911980.15
6399623.89854
52583265.1868
490668857.932
13223530394.2
1978276208.16
9016671101.47
2600264576.66
1.55756291937e+12
422713.541457
422714.432582
2.11580707378e+12
422713.402457
422714.681474
2.77978425301e+14
561644360956
422713.323266
422714.146474
609321554.97
422713.296026
422713.851395
562168915011
993120195.673
508596633716
508396921390
422715.785293
422715.086019
422715.451789
422715.321772
248183585.601
223753949.982
102716313929
456101.495477
422714.614061
441894.239372
422714.702995
56567420872.2
1.27476711586e+18
8.33448102355e+12
1.39695088309e+12
8359684689.36
1.53137835701e+15
2.21014555381e+17
1765300095
422743.936102
758652699.765
656949894.637
422741.427803
422748.762504
964606025.933
3.53446709732e+12
422729.96169
2.11383263464e+12
2.69466809313e+13
422727.779051
422727.263208
5.06409646737e+13
339062958131
2.09827492457e+12
422732.656847
422726.966485
535644.068922
861616225753
4.8579697888e+12
422707.728302
422708.468901
422708.319502
595077835.476
729355660876
8849906663.99
1134745.64493
1125107.96086
34717979.6249
752917310767
72326354301.5
422706.980093
422706.383308
441888.634444
1147912.89064
468167.105494
483097.770992
561952.979426
456098.476369
149415695.944
331863217.655
1189490548
2486027805.44
1121071.48588
56874190.4378
1182150.94132
33246322.3803
6386637896.84
1071205.88032
64676046973
1092287.63824
408051.055111
60201508628.5
536132.633626
1093043.45638
1779926205.19
71281140.1847
42799493.012
2.28173983327e+12
116127136.112
135751482.681
8589908831.83
390191178577
1066251599.61
65541499594
205170181.006
7643869.39437
74695326.6351
325564092.861
150242593493
10575741400.6
2029870.45384
6820708524.72
47379284.4532
81029136.9997
1549408290.45
29888284140.2
110283735807
792571792.341
441891.718254
424971.482251
991798540.498
1451712.70322
15419978082.8
6.45565428225e+12
496501645540
3995249985.08
3.13159423905e+13
1.31093354268e+12
203489477693
6.61630341872e+13
422708.345088
422708.62239
422708.819523
1198352.41438
68401725.7984
24488618.122
5865418.06338
3577205.09441
1470698.23785
12943646.0225
1514491.19869
468169.399324
1144329.52797
483097.822831
562012.927915
315277.023879
24232.2203241
416797.028307
422715.214398
397705.878486
1626873157.26
1060792065.5
1160298.68314
1186953.39651
562533.844012
1526910.46781
2396893.19577
422714.168356
422714.63046
46085926.8769
8750162.86083
11658053.1621
24532547.6449
101978445.545
481429015.356
13868453.2544
422707.619719
422706.585544
422706.889589
1444231.70255
416788.672705
407946.956664
1187868.57721
483096.802689
468165.764355
456096.962987
1144361.67846
1187905.334
14226429320.8
1.04640401734e+14
14455624840.4
422706.524412
468167.170868
441888.82319
441889.355694
7846894.89159
14759244.4711
15226987.1279
2008514.32984
37930887164.1
54875539.9528
19747730.7361
416788.297571
422705.266269
422705.063664
563130.592781
1144330.92381
561981.835358
1147912.85616
1187905.35896
468166.799947
1048729627.77
160585162298
20135542104.3
14513585.6763
892994218.738
89595405.9786
4332539.69945
408143.748535
416884.905789
394898.990574
416865.808982
87052231325.7
422795.693971
422796.834976
71078522715
32244.4412928
274715.964869
1048352.66165
103588.849488
32246.8371085
1161520.77261
1130885.94408
397768.0985
536172.999152
143397.511787
147772.781489
100377384.236
422796.035976
422796.244594
6907550979.94
422737.881259
422747.13574
422742.8757
422739.482721
36390672.5543
1023045764.66
283236411768
4.57377843133e+17
2.0937062558e+12
5.73821931314e+14
3.47674851701e+12
5.24874473985e+13
700768284329
422748.874792
422753.173402
422746.458104
422757.677508
2213574227.21
2983414.7078
506569900174
1991382005.15
10069399200.1
417446.34673
405113.410194
422801.972706
408119.251475
422800.026072
92160548.3398
1123168.87787
1091881.27719
1241840772.9
1157853.13837
540984.293407
422735.191607
422749.007542
422739.153306
422747.825096
422807.802314
416875.977267
408053.933326
422804.782234
422769.182596
422757.625428
422764.942532
422759.053241
536202.850906
1060301.97318
1131022.42098
9522163639.95
2259059317.68
611451433.492
1131001.26543
1164301.73867
536160.01186
2.02369444929e+14
422713.668264
422715.069036
1.57820010058e+15
422714.893504
1.06366273476e+16
422713.764182
422712.590465
422711.061001
422710.576357
1125458.6625
4.71589094649e+14
405040.525449
1125458.61892
1.96978285701e+16
536133.35751
422712.230978
422709.654991
1093011.84248
422709.133821
422708.125134
1125458.69559
2.10199528099e+16
540905.430282
2.25673346974e+17
1125458.70735
1121069.93504
1250591.94546
1212852.75141
1235677.42798
1099399.50079
1150930.78453
1173813.69761
1250152.47409
351834134936
1134370.57903
259850452.921
1157263.08497
1174063.67063
5426977243.13
1099286.45902
1173803.14505
1134354.62706
1197544.99136
1061455.7052
21167590069.3
1268072.46695
1069840.03343
25654630.9714
1134361.21298
1206654.00701
1079640.12926
422718.946458
416911.468968
422718.750744
763289274.004
441892.448321
483097.215416
123910014.789
456100.90558
1672449190.44
468167.958622
422714.477332
422716.199158
422716.384673
536158.770673
91005813029.5
79671503789.6
1092620.8151
6603882842.98
1163508.1573
422716.699795
422714.473064
422716.569506
397698.071425
1189808.35315
408191.309311
416898.59649
535636.124922
47918382.8153
11818891392.5
453162071.83
1101732.58355
1163509.96178
1164267.08751
422709.183663
422710.606133
422710.413972
40151795512.3
1.77466794571e+13
1.7258481971e+13
422716.126948
422715.958043
422715.737276
422716.359815
213958968.239
93496651.3228
224699289.096
422715.745993
441894.14608
422715.173081
422715.433849
422711.294931
422712.931622
422711.503548
50958703444.9
50963404359.9
50958569973.9
422716.159803
422716.255236
422716.436463
422715.903963
422708.659215
422709.68327
422710.127974
422711.795003
422713.06826
422711.667024
1147911.02759
456099.577989
27999.2790354
300332.655701
468168.0097
563132.117251
108775.618068
91449090.5798
68321495.6258
663491334.74
561926.869033
561952.739377
468168.727657
1159853.26323
57066643.9872
38384435.1017
111336167.719
468168.902898
468169.303118
441894.619901
561981.74324
416798.967342
422714.509902
408065.582466
394579.574852
4051856.87533
73156499.112
1144329.57275
1187903.95394
1188901.56057
59627071.1778
1147911.07783
394815.638464
563132.231825
150861.973515
2708306.17099
416797.39514
1160803.6801
394814.551874
422747.332551
60317174.7955
138536077.516
1528318.76213
422758.283359
422754.187987
10197538.5961
716468847.698
422742.089896
422750.94206
181353795.801
422751.35987
1835279394.39
67376115.3681
19950226.4319
1254893.84255
422764.976387
422760.548641
422759.02574
4458349.22735
3904525.8415
416799.573621
6441444022.64
11356228983.4
221692684447
405056.952445
422726.339249
52484776803.5
3.50884426077e+14
535642.891145
535640.988663
1.07147486615e+16
422724.351178
8.14241338265e+14
1.57292525992e+15
3.90641105431e+12
1.39924114113e+12
405056.240805
422722.553465
422724.576159
1.46117876774e+12
5.14526694913e+12
210112270339
535676.277666
5209210494.81
1130375.49035
53590797783.7
394684.849771
5.08676041735e+12
1090500.28097
394636.648725
1162423.60527
7.90934479634e+13
408033.63313
397654.447591
422800.205838
416884.600378
416864.740022
422712.168171
422711.08773
8729000013.99
54260761770.9
9366017652.73
422712.012012
422711.19617
422708.570233
422708.00125
422708.468001
422712.316211
455047592.919
4965631655.69
422710.951475
774652798.341
422712.419345
422711.173107
422711.265862
1130705.62098
2112818.48859
6143441.33332
8665792.89581
535557.841034
536162.826406
422705.376706
422706.894451
422705.487713
422712.142825
36810486.8395
34734834.2376
422710.510085
23763120.4461
422712.479912
422709.303411
441889.021336
483097.282448
468166.875714
1187852.20568
416784.05411
422711.050091
851115486.862
802881369.902
422711.963998
30895425.0568
422711.079283
397710.742304
18971249.9191
408062.666184
52163859.2712
3001750.74412
62935463.3329
416793.93855
34235836.5137
330937293.359
31208110067.5
9851277208.45
30129202677.1
41361706.2581
1447934761.3
563130.746366
563161.776692
1160837.06258
562479.099185
1146046.14805
1160113.31535
2602608.4462
2805972136.97
64031457.8122
394801.847138
65098947.926
16498408.9363
5122597.80657
18919651.8678
422720.184921
16676743.485
1.06088851434e+15
69271720.1038
7.49545484954e+12
2.8862614367e+13
28540625391.3
7.34703260554e+13
3.63130934804e+13
3946201.40519
13004373.8495
20720515074.2
416802.864366
1697389480.41
187272129656
17981329861.4
1372514145.65
422732.678896
136186881.5
422737.174795
1323450352.07
139498755.871
422722.642474
213056744.601
422729.559557
422740.904152
218460000.499
158672122.402
422729.662376
30445068.8204
422719.237411
14315760344.9
422738.309631
14317389670
422735.079598
14314638014.6
422745.13558
14318932562.9
746172244843
536079.055492
422715.213166
174803018698
422713.788727
416785.359102
756168308870
1127461.22605
1170083.63242
8.53735317646e+12
1168832.95778
1125458.70854
830861793287
2947441.70247
9174469.72054
1017057.84922
479383.729059
779317.712096
10170131.0602
3988232.84906
4913395.74621
6704156.97135
83229.5472506
2272791.64422
186062.401949
97693097.9847
5723883.20105
5276056.52234
3298399.37522
108868.028537
16991319.5146
430792.86979
22138856.6099
4028215.33934
8400049.90652
706794.754703
5864266.83533
10968618.9731
1880112.70294
3765660.12843
8411608.44035
1178477.9259
1130975.96045
1093041.8873
536161.309165
1164302.1003
1242503.5658
424761666.043
82831748.5964
422741.224512
394835.685995
191886310.757
105885112.642
408102.113651
423095230.597
42005436.4383
416835.793595
10115259.277
397709.181247
121324078.598
64115437.4659
379609652.03
422742.838751
1576451299
422749.630723
1862965440.53
416818.574568
1579654274.41
96547286.4509
29842450.3252
134528341.721
46181571.5139
449939758.313
12749606.8136
2954477468.26
24142348.2029
422731.983915
24259221.2618
408092.569925
57023572.0572
422731.329908
8430164.71267
17808496.2262
416799.305913
422728.144542
6104088.97966
24689331.5765
422729.127152
15695075.5265
422728.635188
21812289.0863
394807.407154
397703.930372
26840895.6067
416802.305044
10693762.7871
10306333.1242
1.03767725612e+14
1.54579616948e+12
1093084.24048
422741.572432
1.69582202479e+13
3.72678262872e+12
536202.103612
307091082374
422727.184375
29246083805.9
536168.533363
3.64259150399e+12
394885.713491
1131028.83212
1.08601983996e+13
422741.360741
950609418664
422734.89808
950610091501
2.57883329543e+12
422733.378082
2607320.0666
258444633.633
536112.535197
422768.202776
422774.048191
53682249.3605
43879564.8217
929152.827608
87302.8395388
422837.615872
422831.670918
422813.755578
372836.961897
118194.971067
2709037.56594
1093036.03738
536183.391183
2056606.09934
422774.463419
6186879.28641
862440.305706
3257693.26743
422781.889692
422807.827774
1620526.63525
422794.522798
6110670.72844
809496.91325
1130999.36407
1164302.68889
397766.135428
45945293555.5
1164308.57494
1130984.35147
2.48677384883e+12
4476885440.04
422947.730816
417096.650731
416961.992551
408195.931323
416980.076342
408241.749384
394894.994258
422981.419191
971926162.6
149296289173
422750.969484
422763.167391
358521425851
15399474774
422758.66356
441715001.604
488941366.565
422757.411129
416848.915399
187769443.834
422761.425256
423249978.109
319032237.662
422748.074854
447959404.002
422751.722629
324291505.622
530534231.382
422754.506877
14254207.3552
422772.976793
3390780.35628
422773.815155
26660316.9669
422766.638963
9848829.1498
422833.383378
422818.815292
422855.869188
422987.748479
422864.575294
422897.954251
13071634.3306
4812184.98567
18864589.4945
15970574.2909
196389222.734
2318539.57409
64343970.4287
13503439757.2
32929011465.7
2941060197.06
24684.239485
846145904108
7121850609.2
2270630120.6
1150927.26194
1174164.62808
1134357.78987
1212643.87748
1099381.5643
405390.818264
2227419.57442
7389353.07504
1071253.89244
1192074.86228
3320469.38062
1059083459.13
408374.867574
405379.858805
11845452.2804
23667.8200033
76161.8180375
59438.1174147
423008.63119
422925.065028
422994.164159
200563.358769
24686.3689716
24689.8512608
422970.112228
422923.989192
24685.5941609
422984.723351
24688.9984015
24686.3061745
22761650.4133
22466753498.9
477055282.581
1079111.92877
82540511.6396
7049520660.01
1341680502.93
3.11325282956e+18
3.66863862139e+14
3.17468856444e+14
1059301.56209
251663103575
7.9696715539e+14
6.31037004447e+15
3901051688.33
1134006.06981
1083393.50671
4605573917.63
1079104.35118
153678859.878
2.93430193948e+12
535703.95848
535665.778583
1130392.85065
1090539.59584
1162408.94856
76543.4382154
75141.3520271
405363.265603
417090.414475
545158.214501
24265.1753481
417013.613267
6394148.50909
20629049.3073
4342634.6231
182102135.825
4435908.52069
143321.125466
41041908.3236
475472.231538
393091.391059
283159207.322
103495.668929
452648.942584
1438176.27761
394681.520539
950477.741721
416997.969565
951707.0934
147738.346777
952299.469285
397675.157079
10598111.2892
1.12769426289e+12
2354253678.16
1099095.89044
1134011.66147
90338994.7496
250201334.395
1150571.26901
539619237501
1118498.82015
1079639.35471
1235376.27505
1067704.59769
90940780412.3
1133427.9014
87165593.7238
1267438.65376
8878841467.56
620443281.469
1214743.74958
1.39369723329e+13
1173515.97623
9955478396.54
89991006332.7
1212570.61471
1030090.12174
447143.154288
161693.061727
536326.307027
417103.537837
1057384.81152
209158.507741
291855.243583
380874.032181
1131067.74499
391076.5278
276715.848124
388265.815777
1079643.68001
9.20098073002e+12
1079655.85557
2.65664128807e+15
1134356.29257
2.84869226138e+13
2.18753119603e+14
536159.244591
1087057.47547
405062.16355
1250165.38206
1157403.24557
3955336657.75
3514461516.24
1037860.60846
885679428712
3180133064.82
346286825760
32506016237.6
1083721.53129
463701402874
1144556.81124
9.57103945666e+12
1250170.48404
135778705459
1.64145890227e+14
1.03085257305e+12
5.61847224642e+12
5.60527261541e+18
4.95821272738e+14
1.14535551136e+16
7.06224290234e+14
5.65461751771e+14
8.26659019768e+13
1.54159258104e+14
1126089.9903
431594858.011
394497.474101
71402765.097
1178808.12875
405086.779268
1173637.75267
1782247.76894
1173637.73325
405087.120007
422708.667782
422710.204985
775115653324
744163338620
422710.138326
818496987583
422709.081514
422708.646991
422708.015564
422708.755407
422707.700862
5248655862.49
71571450083.1
422708.985924
422709.761569
77396761035.3
535608.947574
558474.898024
1024343379.15
562241.382524
33781967577.3
1159853.68367
36223258337.4
456100.084499
4865325.11542
416888.6342
1180341.62804
408184.851395
422719.228855
422722.337084
422719.516053
1097422.49877
536083.34984
422714.494905
422716.013108
422716.705396
422712.652669
422716.481569
422722.98649
422719.461493
422719.808994
537113.434432
1161952.26318
1215708.63997
653312976.218
18551753.0668
1403168.34277
235087.860772
18681300.7827
38158455.6526
67605476.8713
67716123.7829
903379.649142
17389578.0288
8052454.95371
20879310.8329
6205361.507
171066.504546
165968113404
127010617489
2.11410909536e+16
3.60978638331e+13
9.95956971858e+12
21834478211.4
2.02812654448e+15
397611.726077
422725.334766
416799.627796
380227.115887
416815.895361
1162375.68243
407968.463496
535635.914548
422706.415266
1092225.48319
12781313.0878
137365.50775
535638.52986
1090487.04447
394583.094012
1130393.28578
422726.142166
422730.317672
422729.272203
422706.44665
1134631.10601
1125275.52716
422798.601879
422773.675852
422783.129427
422763.962122
422764.261177
422772.126649
1162391.49152
176014.187842
408101.036549
1092100.62341
752330.92899
416838.390731
416819.408451
397706.36169
61094322303.1
119847020236
199836216064
32013230225.5
2.26565940449e+13
7451598441.4
30807367.0041
5551793.26343
394850.16594
1605399.86696
3317820305.91
408270.252313
319599959.594
44445639.922
24681.922885
24684.9065083
422842.678068
422880.79562
422848.894998
67999.4685048
24685.2397701
157708.194033
416873.136382
422818.33937
283370.379941
422823.58241
333380.168746
302004.733298
29956.9769129
397786.553517
422880.979
29958.7871014
417033.912354
24685.2504747
59547.6896377
1131201.16132
422720.82047
536742.848386
536136.747361
1093043.67477
1163430.3674
422722.650969
422718.349805
422715.939682
535836.335677
422734.881683
422733.478916
422745.012263
422762.222761
422747.482426
1130382.16033
1090499.4761
535658.553407
422743.385535
422755.452954
422745.439045
144127050940
3646905.79709
425381060760
550394665365
3.26631708422e+12
54634070973.8
60549286020.5
9901148129.65
4585620.2207
394853.734228
141433.298852
6265240.92838
951548884.213
256151.98566
775416.471001
397763.147128
1160970.35226
408120.684211
1336823.12722
614849.208348
217473.306848
1.16134209911e+12
3.22597901854e+12
1.12585611067e+16
1.87916525874e+13
1.08023029706e+15
1.07154140375e+14
376989667326
3818408239.55
71151646.3351
495921505.138
4112320642.92
3858230924.51
430997012.307
17365893.2246
170721682036
3133304041.77
1847964798.32
3760363053.87
15879301474.7
15881853470.3
9403173238.89
16299050432.5
10022269.9308
7813061.30886
182795839.664
59770003.735
21430950.5347
33930325.7848
1.23613169513e+12
1.71066613579e+12
8.93627905032e+12
26632278627.2
975407239528
1.37566554171e+13
445760868.369
422727.711299
422734.716178
422733.465498
422735.156944
422740.833506
422736.655796
422727.798534
422731.28796
422732.325731
422740.930455
422743.656677
422738.551301
3.1602658947e+14
1259362285.02
1.4251899624e+13
641297818473
1.8373853557e+13
3.0314826097e+13
3.03189452652e+13
3.68989461817e+14
4.89672771814e+14
6.84268930364e+13
9.83777123555e+15
6.57159028529e+13
153605217804
5.74480655125e+12
61429081659.4
1188880.73103
468168.320001
456100.221804
563103.559639
13935663690.9
13981233941.1
13893294342.3
203650740.901
416797.155323
408064.893292
397710.575977
1539544.76314
4251310.14809
982622.823764
108650.029339
563910.081673
1163851.888
562504.491614
1147849.0134
1146011.92333
1188901.62058
70768737.7246
21228840.8526
1935186.93431
4032209.28502
416786.761078
408075.279484
394792.056081
1188880.72147
456099.348951
1196833.02248
1147849.04415
422709.913002
422710.789462
422710.967052
432801.458782
18597694.5218
2113360.76947
441893.882215
456101.896623
422715.041455
468169.145271
2693224.83742
332376.548368
438471.593781
441894.765847
422714.387658
422714.949948
456101.502055
563162.219495
11039395600.6
11061147264.9
397689.296454
1188897.89975
1160837.28372
161531383.6
10408695.8947
20218994.4739
422715.065241
422715.912399
422715.543318
422715.446376
422710.025963
408071.42798
416783.132043
422711.930586
394791.142817
416784.157433
33339601.8836
4592415281.93
9847225405.28
28482742805.8
2736149177.76
949053218.318
299594191.16
22585293.2125
406706237.629
28965623.0617
6027120.06108
273648661.922
4836546.22736
118372784.455
456100.024718
422708.946262
441890.445243
422707.701991
441890.632424
1e-15
22982.9846244
397679.82946
151111.540784
475665.080944
223471.83507
219642.941254
422715.576426
422714.682299
422715.257598
422714.924692
563103.546089
468168.21624
1188877.35926
1730014.39987
1731141.84576
1730699.42063
416786.331395
422716.253107
408075.181764
422715.783844
422709.091934
422708.458388
422708.239602
32582923.8385
73748919.4455
26866150.8289
24124771905.2
14500616411.2
5521746.71591
41708548.1187
2766902.46712
408086.224164
2046783.68015
394802.502864
29551318.3834
14926987455.7
85518053.8325
207617836.244
7090199.8136
24049399.3388
497671.817337
8406027.2517
3048734.59977
2060108.20304
7002986.19312
6.59029998975e+15
1.69004646603e+15
4.88737466439e+16
1.48157987308e+14
563075.69209
1147879.73447
5.47378407541e+12
9.59035719742e+12
483097.549452
1188868.51918
1.16790217238e+13
416777.401956
408067.555364
394786.626031
58275697.5312
57632957.6784
517258208.048
562505.350942
441893.250753
468168.8166
468168.898048
563102.577503
483097.844335
1.98123831381e+12
1.99011801869e+12
1147848.58751
1.92820488324e+12
468167.247963
6344402478.81
938680009.651
7468139595.79
1146013.3969
562564.585708
1187847.22631
483097.484559
1160837.20236
397698.560925
394789.534272
8.80283725884e+13
468166.842975
133646927024
422706.265368
201284653127
456098.161838
28602018306.3
441888.538337
408059.531793
416780.79645
422708.658069
422707.913248
422708.019114
2629085.80698
3085263.16402
2798759.2492
422714.019274
422714.209485
422714.415483
441894.023583
7826929.98935
5372247.6013
422713.759678
422713.432724
7694055.66611
1968535.69233
308798.243542
422713.628626
468168.387753
456100.92206
441893.474101
416792.29328
422708.579976
422708.637252
422708.084433
422708.077757
422708.729347
14158186.4373
422708.070972