/*--------------------------------*- C++ -*----------------------------------*\
| =========                 |                                                 |
| \\      /  F ield         | OpenFOAM: The Open Source CFD Toolbox           |
|  \\    /   O peration     | Version:  2406                                  |
|   \\  /    A nd           | Website:  www.openfoam.com                      |
|    \\/     M anipulation  |                                                 |
\*---------------------------------------------------------------------------*/
FoamFile
{
    version     2.0;
    format      ascii;
    arch        "LSB;label=32;scalar=64";
    class       volScalarField;
    location    "0.01";
    object      p;
}
// * * * * * * * * * * * * * * * * * * * * * * * * * * * * * * * * * * * * * //

dimensions      [0 2 -2 0 0 0 0];

internalField   nonuniform List<scalar> 
29768
(
-0.576204939637
-0.524640207888
-0.523398389211
-0.514500141713
-0.545874924622
-0.525462321861
-0.534959513278
-0.564638881763
-0.535897139361
-0.522411205376
-0.537092313043
-0.532055720124
-0.535136112131
-0.532354762098
-0.532100339579
-0.524743490453
-0.534871130649
-0.533572328653
-0.520081481317
-0.40861500193
-0.407734831078
-0.520001302814
-0.519695217056
-0.519672145764
-0.523042831662
-0.581425487878
-0.576453430383
-0.521625329366
-0.581905271853
0.266093523719
-0.526210612912
0.329180084413
0.369999901938
-0.525879668891
-0.543422829512
0.336488603923
-0.509960380587
-0.505599120252
0.210862527241
0.314304371252
0.23433594127
0.301682111618
0.0183038676216
0.207701613878
-0.11739015031
0.0788043760921
-0.665070433061
-0.14060207611
-0.0227403808377
-0.594714034938
-0.202008667802
0.0636473036727
-0.653235653614
-0.266391918928
-0.060498655422
-0.583003044397
-0.209616012667
-0.548285151498
0.260961584073
-0.525974053783
0.319115550565
0.241585888744
0.327364137762
0.25109164863
0.115585621476
0.243383862492
0.0364571466686
0.217568821809
0.102658914477
0.35972592601
-0.531639430456
0.324305350798
0.315262486836
0.364536870124
0.365932298028
-0.531249481419
0.367998890877
0.368801291891
-0.526120255483
-0.530395554009
0.32848791732
-0.535420877534
0.334412542528
0.366117690705
0.37383549384
0.372361442139
-0.527109419802
-0.547056725887
0.369787823595
-0.572924018807
-0.543262317321
-0.570783704694
-0.506299400479
-0.123711222434
-0.399372289021
-0.1876120551
-0.619975781769
-0.178570142244
-0.119012737979
-0.179297019716
-0.124506856697
-0.515135395717
0.326920051481
-0.512508847892
0.309569315943
0.33474466675
-0.50312839114
-0.136675673361
-0.413634574481
-0.209726875262
-0.55745347969
-0.19762429122
-0.186861796863
-0.602956449239
-1.15849028983
-1.05159511614
-0.258210127021
-0.407007765238
-0.219377092422
-0.553850450903
-0.235272527966
-0.20571860305
-0.528928161847
-0.717601926397
-0.612895663474
-0.599772706515
-0.993955868917
0.301904020203
-0.525338024738
0.326468572234
-0.516083156435
0.305250627122
0.332684757331
-0.520359857508
0.194349794142
0.350084492732
-0.514697852827
-0.5278707998
0.332799476579
-0.524565581848
0.337185510205
0.350122205794
0.354129882754
-0.524969022794
-0.528286269722
0.333067351586
-0.529632642641
0.33854961561
0.351243624787
-0.578689748533
-0.598524383436
-0.595338352828
-0.559953472181
-0.577753490019
-0.564789314586
-0.520631255978
-0.498972651219
-0.502748900501
-0.600012634221
0.292947354223
0.274493465703
0.295753294548
0.33537691441
-0.522343921704
0.312023861901
0.267908835326
-0.520688077113
0.303319117299
-0.5295473461
0.341212418346
0.358513529836
0.37589284085
-0.531618348326
0.364001488313
-0.516250075928
-0.514469069699
-0.531264592032
-0.550987786951
-0.537310338177
0.266261892651
0.219286662986
0.248824928546
0.256622072346
0.224020733848
-0.516162322546
0.352505009527
-0.506205207891
0.281148084468
0.320988015693
0.288216374213
0.311863651233
0.284582833523
0.293268783451
0.317955356066
-0.507195494186
0.301611952798
0.267174899647
0.22560783224
0.268213395137
0.226007268024
0.260965399679
0.222591656441
0.282335483952
0.279126132431
0.27367256322
0.305468320551
0.277195347344
0.31831153243
0.157732994201
0.181940073787
0.107815857763
0.209008897514
0.125029666911
-0.0850918204187
-0.0271133310975
0.0998750954437
0.0814971468679
0.0845453212479
0.094775901787
0.149975063059
-0.0482356170316
0.0836264001484
0.143876498274
0.196099746161
0.152667732745
0.205988202272
0.138556237466
0.206269559418
0.129293857574
0.0118537331903
-0.36366313631
-0.00595389939787
-0.00795200751248
-0.279175233443
-0.559586785938
-0.722843265703
-0.573755840874
-0.185684932429
-0.127809041498
0.00848212114182
-0.0914398454392
-0.64866301968
-0.135077969987
-0.945249910179
-0.617269748081
-0.659290417424
-0.618405569628
-0.556238306299
-0.844026253781
-0.626043650168
0.0464730736654
-0.025531248579
-0.463945875952
-0.0243030695257
0.0363563567149
-0.0180755957801
-0.0585690865364
-0.314970139455
-0.109730418937
-1.08752593519
-0.569264260071
-0.621891814008
-0.562416288114
-1.23834640584
-0.642986837918
-0.801842489889
-0.189700368977
-0.0580029180549
-0.161297894815
-0.68553039966
-0.201198536076
-0.677301231735
-0.581229512415
-0.59610727483
-0.686221037835
-0.609174216978
-0.633012842684
-0.570909866455
-0.59177517818
-0.811312370335
-0.610263308546
0.303276046746
0.255136363872
0.29055279476
0.259346615208
0.310525278392
0.286035793462
0.250317985642
0.302387413851
-0.525673116908
0.33402806699
-0.522522139686
0.310613114236
0.333609973342
-0.52161845153
0.295515755844
0.322395778202
0.293317274378
0.321743819011
0.294395981925
0.296363749495
0.329080057947
0.293028528602
-0.510874371688
0.271644961174
0.296989975576
0.259251982626
-0.518438779815
0.288309068411
0.247866008935
0.274204944151
0.240105937978
0.283481256157
0.278915708421
0.247246403304
0.310900793269
0.303408258377
0.328520043964
0.325513021009
0.313588571705
0.30098692429
0.326648780331
0.293739889444
0.259129944378
-0.521088010093
0.300668207289
0.25842298068
-0.521865957852
0.204913789508
0.261005693598
0.184295163713
0.0619368925408
0.163716163957
0.172377902763
0.0440715922277
0.158091996632
0.245631589144
0.186450987055
0.167410804952
0.235868252725
0.195759633333
0.244073498945
0.185419839161
0.23438986788
0.179531163701
0.127742410106
-0.0881928483669
0.113335205256
0.0615120562133
0.0912543088184
-0.0578010492338
0.133277012194
0.213488316308
0.285541159326
0.248430919897
0.188424334829
0.0786417154499
0.166930547927
0.159119589737
0.227059243218
0.16038817103
0.222173667083
0.128972288238
0.174733818268
0.231291525761
0.137317487717
0.162458136175
0.0829581782553
0.0358182981212
-0.0332578141597
0.148294771105
0.153317237407
0.206180777938
0.242988140575
0.246042148187
0.189034154796
0.350653128393
0.345793385823
0.360275212749
0.365846128475
0.346624572701
0.351562760772
-0.51475546958
-0.525094776412
0.342029086773
0.354963843706
-0.527276935819
-0.528984138186
0.370813349455
-0.523883908585
0.368131016501
0.354423384928
0.345847661371
0.328304167525
0.32270852676
0.34048670275
0.326219421856
0.339152143192
0.349015492213
0.355522528685
-0.529330591883
-0.524178807492
0.367911839022
0.344943255348
0.333204162252
0.318431564069
0.324927034837
0.335431615766
0.351696935904
0.363872004356
0.376693960313
0.350797859993
0.375745394958
0.35010083088
0.351978875068
0.380373838347
0.365886677336
0.375172936554
0.375170381772
0.36687450911
0.384180381489
-0.525084459345
-0.527749792071
0.374702870587
-0.528757486
0.372267671406
0.383742020019
0.382635276602
-0.527573696103
-0.528498481557
0.371463975597
0.380488853504
0.36799630123
0.377724247949
0.37540846174
0.377303804707
0.374853700852
0.381048333857
0.381669115837
0.355724092121
-0.525804321457
-0.530561098989
0.339969905098
0.357097736535
-0.529204710294
0.3398209832
0.359374509615
-0.527580761551
-0.52883655866
0.372126323593
-0.528492223049
0.359179843593
0.372175852391
0.360078267139
0.329998305172
0.330431574609
0.344757192512
0.334342703069
0.360136814718
0.346101209664
0.360573750381
0.374865797577
-0.530573250898
-0.528794671754
0.362140235881
-0.527628176413
0.373228366165
0.350552576887
0.348760773928
0.339864319204
0.333098295916
0.351889417037
0.338690690052
0.347446521854
0.361077055084
0.366839408674
0.367758044147
0.353296859695
0.360860993538
0.368616163073
0.353650122118
0.378905745893
0.386614831239
0.385092324518
-0.523659999565
-0.526383101071
0.375383647576
-0.526763792699
0.384541188753
0.375688619103
0.386708149529
0.378054136506
-0.52678863161
-0.530574895127
0.37665819217
0.386016688785
-0.540376376992
-0.561551015723
-0.472116504271
-0.644958468786
-0.513587686599
-0.629407178714
-0.612152281611
-0.578343211692
-0.594745135329
-0.606031344134
-0.628432555448
-0.601990349988
-0.621177609638
-0.600900444759
-0.564839877166
-0.507039123509
-0.514436027272
-0.509798310442
-0.497309263405
-0.497724744946
-0.511605917751
-0.508392270498
-0.6093964636
-0.56661614975
-0.572440962599
-0.571333585667
-0.569222211039
-0.562191674016
-0.55928859586
-0.55285363819
-0.527852431142
-0.528796912864
-0.549912867585
-0.530387414262
-0.553782467191
-0.552738242854
-0.550064102594
-0.52396559225
-0.528728698299
-0.544925126282
-0.529866804134
-0.542470648389
-0.546671154973
-0.5464953044
-0.53298007673
-0.535063209145
-0.542283657827
-0.53486267827
-0.540791728938
-0.536392922384
-0.574918293174
-0.557750349598
-0.557333314049
-0.569117523972
-0.563440754902
-0.553049354283
-0.547006193724
-0.57034922915
-0.530045638489
-0.543176158399
-0.562575690518
-0.545165557371
-0.537613112527
-0.532301860785
-0.535941129493
-0.535898049551
-0.564635825137
-0.533952574758
-0.559525046244
-0.559326652676
-0.562838808636
-0.53061227231
-0.532338620884
-0.531420344493
-0.547135946298
-0.550957069268
-0.552332533161
-0.545249627927
-0.534993073749
-0.533569302635
-0.533585010666
-0.550968560605
-0.558347714892
-0.553735998573
-0.555970860706
-0.528883610291
-0.530601287512
-0.530744827629
-0.541874651483
-0.540977755782
-0.542566210473
-0.539648761218
-0.530993390445
-0.530909365479
-0.529871096602
-0.544753465236
-0.547242424738
-0.545380095648
-0.546729951353
-0.524147389295
-0.529230540883
-0.53767662736
-0.529175355935
-0.5390152957
-0.54443853179
-0.543559560096
-0.530941741039
-0.532265410383
-0.530076784124
-0.540441706153
-0.547548726935
-0.541402631742
-0.545975192898
-0.53108618901
-0.532256922065
-0.528835059796
-0.537939162844
-0.543811221113
-0.53815254267
-0.543319027397
-0.517791054194
-0.514680588896
-0.518611632618
-0.513518230514
-0.51492429015
-0.518178235417
-0.511105325452
-0.522447441039
-0.516843210236
-0.518906834361
-0.514051226508
-0.515302135996
-0.520066231706
-0.516629217842
-0.517391810772
-0.524315101263
-0.522224017089
-0.522796006212
-0.520933841824
-0.520234300776
-0.523645256767
-0.522102917845
-0.524114191173
-0.526422558092
-0.525786119806
-0.52139499304
-0.522888105821
-0.524160483053
-0.570050036846
-0.528818173872
-0.556867034225
-0.563961231452
-0.559792583205
-0.490633740066
-0.517760247347
-0.582403317872
-0.580482327481
-0.580592042616
-0.584392272014
-0.586470331804
-0.585510233561
-0.586448099966
-0.575685773671
-0.571947034662
-0.572781240973
-0.574403329343
-0.577263296849
-0.57307436646
-0.577505685383
-0.582473091534
-0.588805677724
-0.587074622263
-0.582604419114
-0.587144687863
-0.586995823881
-0.584526073897
-0.526420700338
-0.525100346004
-0.525221263214
0.306578361328
0.329516366487
0.313388637754
-0.515484395264
-0.514365723585
0.358952788273
0.370588091673
0.361956341418
-0.527278944401
-0.528332186152
-0.530443636002
-0.535024421059
0.377611405081
0.380330699283
0.380691370539
0.37824122301
0.350294166486
0.340544172148
0.352859014742
-0.507749543648
-0.500094469394
-0.509678314417
-0.506051887399
-0.509205446724
-0.515910552501
-0.488562029522
-0.510309189541
-0.511137791774
-0.515856066204
-0.504515880858
-0.581451284353
-0.582868887636
-0.0566469775877
-0.321577675473
-0.378704012732
-0.673881250586
-0.662231675739
-0.624085036389
-0.650546695554
-0.623606554841
-0.658101268382
-0.661811068468
-0.169990037063
-0.0782774008016
-0.116725246912
-0.586638998007
-0.35709295777
-0.38228401575
-0.462313065137
-0.186039274361
-0.171566670111
-0.142360398108
-0.581303604046
-0.383475062323
-0.397382558069
-0.604584792866
-0.578820024091
-0.579599892559
-0.270364552983
-0.0791756521816
-0.251669535651
-0.813929851539
-0.556123962086
-0.591590187406
-0.657256823941
-0.569705535712
-0.636508180048
-0.587266642974
-0.525876927583
-0.52491390846
-0.52475052882
-0.515549480897
-0.509604408677
-0.516381496085
-0.518994651707
-0.51582793729
-0.529181468036
-0.530385070691
-0.528156173923
-0.530985250632
-0.535053534322
-0.53185661599
-0.532672251037
-0.529807854785
-0.527122095234
-0.527829621271
-0.528133609859
-0.529242586858
-0.529411075036
-0.532372017703
-0.545479938312
-0.542271665814
-0.534561942712
-0.527868973486
-0.529040449844
-0.527795685382
-0.527898467334
0.357164254863
0.368096794255
0.355605685766
0.360358381402
0.369847528119
0.361149522928
0.369000781616
-0.525113000075
-0.528833774723
-0.527638122474
-0.530577567164
-0.529587567676
-0.527569045922
-0.541607597509
-0.532637318554
-0.531224546749
-0.528680631799
0.380001826294
0.384850893488
0.381496260196
0.376446073448
0.383098702099
0.383588037632
0.383339557221
0.382101785553
0.384404241224
0.371958262173
0.38018829877
0.380522756382
0.382504854737
0.375969824924
0.375428144481
0.382630533344
-0.52719911691
-0.526333340562
-0.525841544505
-0.532747099919
0.384866473249
0.383619793186
-0.533881941354
0.390150376864
0.384505660518
0.370445593163
0.379075179924
0.379348190057
0.381775672979
0.37488714631
0.381417229613
0.375225661492
-0.631878535011
-0.625880197157
-0.627509738422
-0.632154669677
-0.61388516115
-0.620681080213
-0.623277364297
-0.612849776759
-0.58196831358
-0.56842712272
-0.57982397625
-0.582330220227
-0.612618408684
-0.625647347818
-0.637078445518
-0.622412077508
-0.620609786543
-0.620377688131
-0.616071818003
-0.60573057705
-0.616034788439
-0.610720161414
-0.608848482991
-0.579125837059
-0.583166826693
-0.578192761713
-0.584188607628
-0.548878540342
-0.55594493183
-0.550962005442
-0.570100741646
-0.547466107156
-0.538648869573
-0.54355004185
-0.544875637007
-0.573239150375
-0.576367175835
-0.582311367186
-0.577315808528
-0.581389018557
-0.550521863313
-0.546900204716
-0.552335162754
-0.542296275479
-0.554819403202
-0.558457211263
-0.63442457446
-0.624404574712
-0.635786190665
-0.62226962989
-0.562763290949
-0.523760269168
-0.49896373085
-0.528666375595
-0.506176031574
-0.598993432827
-0.596496913238
-0.588836089969
-0.590079471281
-0.595004269484
-0.614219639695
-0.620329536494
-0.61529762775
-0.618168684854
-0.59242588787
-0.587887571499
-0.586818897297
-0.593856279872
-0.630104367401
-0.636475452533
-0.66642257761
-0.594941300158
-0.537564403898
-0.419592497026
0.334983697412
0.335634747923
0.324327732913
-0.518352854088
-0.515314257588
-0.518354930246
-0.50736506945
-0.518552202043
-0.511375158494
-0.515605703094
0.320530374878
0.328268894205
0.322010121436
-0.508325025506
-0.514328923266
-0.512818935737
-0.508094954621
-0.513620890302
0.313343275397
0.314594106141
0.317374058059
0.327598155853
0.331720106591
0.325630070244
-0.50939486731
-0.509843067207
-0.514281110781
-0.513322926061
-0.510906958177
-1.1269732674
-0.736083429501
-0.687882250712
-0.693803993106
-1.0964832112
-0.717263400933
-0.723574536699
-0.727400836595
-0.689168196219
-0.768810861264
-0.770362649727
-0.827759863137
-0.711352736697
-0.697770699781
-0.613684893675
-0.665579368037
-0.651353976918
-0.582798551886
-0.612351423714
-0.626682029779
-0.6422582582
-0.638473532092
-0.833641122947
-0.713406856941
-0.917030958404
-0.705703440813
0.302745954422
0.311116991487
0.311007712249
-0.523053816473
-0.517372681687
-0.521422926112
-0.520264413003
-0.520459616821
-0.517941150494
-0.517809134968
0.319603072223
0.326055080185
0.319469767668
-0.512738543059
-0.516044096747
-0.514964778324
-0.50873584331
-0.517456842344
-0.508923522507
0.303374817663
0.312370608342
0.311469658037
0.320910297395
0.355448481943
0.326332631144
0.319992630401
-0.513220557141
-0.520522135449
-0.518629529684
-0.519924146039
-0.511488567049
-0.508488255748
0.210840226749
0.345704519009
0.349715849866
0.344721561525
-0.517589753224
-0.52010550868
-0.522568775408
-0.522669297158
-0.51969495313
-0.520275544435
-0.521988632062
-0.524173024556
-0.526021281175
-0.522132396343
-0.52422537296
-0.527876240685
-0.525091618293
-0.526334077438
0.333401307933
0.338737604647
0.338993763783
-0.52008294538
-0.526253085743
-0.522204691085
-0.523918045082
-0.525255030797
-0.523228836834
-0.525883442661
0.340960840454
0.335033584993
0.339700826731
0.350049794186
0.344094963373
0.344493131754
0.358470484474
0.360796552793
0.3494873333
0.353470684868
0.356239606639
0.364334849925
0.349327448991
-0.522850372964
-0.529884654467
-0.526737599717
-0.527188186
-0.525118974271
-0.523628187669
-0.532987285407
-0.524454876665
-0.52986186505
-0.526948699255
-0.528248257011
-0.528909773446
-0.526246867674
-0.531343114155
0.333304842365
0.338946807447
0.338627593683
-0.528936723473
-0.531271327845
-0.527972663893
-0.529435364063
-0.536260714058
0.366062729299
0.343651826111
0.348732388563
0.334811966618
0.353815521515
0.344531875142
0.354462119378
0.34474669846
0.37702149772
0.345555551131
-0.579847716489
-0.579112612427
-0.580742465965
-0.584553771512
-0.583823210742
-0.584831442422
-0.582884529255
-0.590054002866
-0.59277145799
-0.597521107789
-0.596869663161
-0.591601090165
-0.592070169197
-0.594448011411
-0.590165042564
-0.592257627971
-0.589701985497
-0.596385552798
-0.590671720803
-0.588376964736
-0.594391638816
-0.565848663697
-0.565537917569
-0.566415851524
-0.568464720323
-0.562212582491
-0.568043792348
-0.567391210176
-0.573337289658
-0.577394968583
-0.573450154835
-0.579730145495
-0.573508771316
-0.577766915051
-0.574535742133
-0.569252028785
-0.569226541212
-0.56275008332
-0.569390074433
-0.568652038066
-0.567777693347
-0.570720162707
-0.594333900268
-0.593641623493
-0.598068794713
-0.595346558525
-0.591099536229
-0.601031766911
-0.589314525957
-0.582597784073
-0.585506294131
-0.587712321138
-0.583940650471
-0.590096725716
-0.595960341722
-0.601173022239
-0.600699790252
-0.596111130408
0.331377882347
0.33801759321
0.335580443538
0.328062043268
0.328046929647
0.337931290043
0.332168766438
-0.523879473087
-0.522086099043
-0.523886592576
0.324749500771
0.311695355638
0.320376955331
0.3203756762
0.32020488987
0.317977813645
0.326064731095
0.297528412524
0.315872361007
0.281377901879
0.266344620074
0.281320750717
0.306211466366
0.291390353718
-0.518405126707
-0.520166742451
-0.517642965937
0.303456984715
0.30274868527
0.293243169031
0.316038499729
0.292231366473
0.311521452385
0.308095145157
-0.529585953985
-0.532490520827
-0.532021320428
0.376211996582
0.348785370451
0.343388139005
0.341588168978
0.347155038694
0.343238814205
0.347752777822
0.348603606427
0.355315136686
0.360234496707
0.358238257425
0.353532576052
0.361926309355
0.35489152311
0.354581380278
0.372893024536
0.376261281248
0.372818721501
0.375263163919
0.372135181577
0.373108882812
0.375770695202
-0.534231864977
-0.535481734626
-0.546551070158
0.375728273332
0.370478989981
0.385476544346
0.369028145425
0.3640669245
0.369199350314
0.363856310714
0.368345897804
0.365443054044
0.370538967713
-0.52993619737
-0.520563026042
-0.525634993749
-0.527207930866
-0.548095214193
-0.540190045031
-0.537946079792
-0.538019556515
-0.525798072084
-0.535337485689
-0.544363825841
-0.533803571449
-0.536135220174
-0.522714967146
-0.526550767221
-0.533233347189
-0.529826343158
0.242817035788
0.266633570472
0.263633572768
0.253699365706
0.246431438475
0.260483713026
0.25374594405
0.220269878504
0.233556241204
0.244409571889
0.195431276887
0.238360863058
0.267180702822
0.256690524003
0.255122014037
0.22489914212
0.239767826396
0.206630533734
0.226560032161
0.228930532664
0.240815495764
0.201520836457
-0.512621450122
-0.517877063735
-0.519009514166
-0.50832262049
-0.516606530401
-0.518734900684
-0.505937207189
-0.498331632016
-0.51537950841
-0.51087543618
-0.504018993659
-0.513161769535
-0.511234357097
0.300229810514
0.283674788383
0.291252843053
0.300038088171
0.30133280893
0.289159800773
0.298516020288
0.31226112343
0.321279384678
0.312641724913
0.320207056116
0.311693188738
0.312462095644
0.321294458991
0.3029867546
0.291214464088
0.303580141468
0.292923165054
0.302881870209
0.292062483466
0.303371378775
0.309933119846
0.309918114493
0.319412009631
0.319029294153
0.31106405623
0.30859562318
0.319425238296
-0.507987297471
0.311737226197
0.304230637803
0.299444455148
0.313578728181
-0.505694645131
0.256313340067
0.267966598098
0.253732707984
0.269829824664
0.250773782127
0.274238041065
0.254362454388
0.246696816806
0.231588039079
0.222617713379
0.255315031052
0.242425113036
0.222901241646
0.254050269912
0.238356157898
0.239698591029
0.211285454478
0.221831542326
0.23312008227
0.240392036279
0.216442049156
0.266022481551
0.280602441318
0.281952921058
0.2692569633
0.279932588045
0.267189977773
0.268704633037
0.287363138034
0.278326078706
0.276863873139
0.289694077157
0.273314636886
0.289260397856
0.291083929932
0.295920736975
0.309126943641
0.298708731738
0.308017500884
0.28400627197
0.277783809714
0.269893999318
0.289138028493
0.299386037766
0.301640981571
0.310639529447
0.316731521803
0.299565146776
0.303868540131
0.312752794864
0.111008858508
0.0849770685613
0.166919464465
0.179671120443
0.0665033713658
0.126993002205
0.187574879873
0.136553064728
0.22064391041
0.172520757913
0.214769425151
0.0966751478554
0.0223968367212
0.237762488878
0.147075635223
0.192804727914
0.186197508298
0.212248778995
0.179331073347
0.155690826004
0.19906510324
0.0117243883742
0.054988394887
0.0987508633763
0.113025958841
0.0843839318534
-0.013463265066
0.0689939278666
-0.0303164478568
-0.0851524475666
-0.0821547039338
-0.0049196493402
0.00307316185171
-0.111850321575
-0.0123649495531
-0.0407090889087
0.062365596809
0.0266717196503
-0.162553971861
0.0495326111244
-0.0707087833456
-0.127479310974
0.0240223340691
0.0994773427405
0.0498547049517
0.089048144742
0.0570258762212
0.078904727105
0.0375819024092
-0.582316430772
-0.586911252358
-0.0879267729272
0.034279664265
0.186535799061
0.175587273146
0.00724214324422
-0.0315827203973
-0.213881895537
-0.328785164209
-0.116356884854
-0.0435580151975
-0.18066145082
-0.244033706528
-0.133942832099
-0.287384728015
0.142222209069
0.0936845604441
0.168448521365
0.137483570595
0.134597480389
0.104111206544
0.163676027149
0.176694932912
0.212458512197
0.205243219851
0.185323287601
0.204655277989
0.184615688139
0.184343733405
0.169461144759
0.18717910096
0.192268027825
0.205586796508
0.197860903474
0.163015651624
0.185185796285
0.149840591053
0.131208352851
0.122062291623
0.158873669079
0.11295258611
0.160590901743
0.157765558519
-0.0595880414658
-0.000231958425003
-0.0726048265667
-0.325181390876
-0.19088003291
-0.185962095525
-0.0149734775677
0.0349579427541
-0.0784290731044
0.00294060657253
-0.0609559902654
-0.0226852667242
0.0405622769714
-0.0636852250786
-0.226319935289
-0.146282027176
-0.165803780214
-0.125282787274
-0.136850858471
-0.0765906381848
-0.69298472274
-0.672443026829
-0.68595685141
-0.695489844611
-0.996713963607
-0.559704659693
-0.725583817145
-0.675702896354
-0.918964754714
-0.242593938692
-0.311799601856
-0.591890327378
-0.390599896572
-0.428329068309
-0.338632688392
-0.211512844696
-0.192687788161
-0.129727343064
-0.334886541201
-0.169383246263
-0.296875532341
-0.225610145182
-0.102923813588
-0.167090099043
-0.239627839838
-0.152354688502
-0.0542537295983
-0.268041920833
-0.137189404139
-0.0805893546754
-0.671574311947
-0.787814867804
-0.902906911682
-0.715319782769
-0.692678269732
-0.771429460871
-0.68067145116
-0.610451910612
-0.647655844018
-0.656314175844
-0.619999405438
-0.663040016279
-0.640057251454
-0.612912068135
-0.647845301142
-0.674339289115
-0.62208129202
-0.61847718781
-0.668262114081
-0.652723290645
-0.613836501175
0.00136670106722
0.0860986270385
0.100629801307
-0.0828005472725
0.132895319489
-0.141261899571
-0.270270958649
-0.437734835316
-0.325015703042
-0.236185627212
-0.17760819908
-0.282657739816
-0.0382851196058
0.0289804538515
-0.0994400755254
-0.0361927085122
-0.0305297929388
-0.117436702128
0.0218341396482
-0.107487570618
-0.390654893171
-0.165595045678
-0.192674463903
-0.0886827019152
-0.202290529122
-0.233936520754
-0.0672028403425
-0.202267203057
-0.0259085133541
-0.0582946651277
-0.106057652693
-0.170284284771
0.00850372808844
-0.712777600003
-0.825323363626
-1.11057009048
-0.732505052506
-0.837130480692
-0.695006658892
-0.748237355981
-0.672341581776
-0.657541579711
-0.679088139109
-0.705653029669
-0.644729370064
-0.741651497711
-1.13260025994
-0.84742162026
-0.831700681362
-0.785944821048
-0.835935395705
-0.773032560503
-0.667107781517
-0.68665971663
-0.624203342515
-0.6595670065
-0.701007492166
-0.633727413982
-0.3237760087
-0.154341252096
-0.200854776195
-0.385304667149
-0.522747777184
-0.202108107168
-0.257758745176
-0.34549576823
0.0469563339306
-0.291224978472
-0.213957900613
-0.425357283425
-0.696903553311
-0.702614303173
-0.732764932944
-0.644143296327
-0.704453550026
-0.694732680652
-0.689813270945
-0.578443017962
-0.578242331952
-0.576802959428
-0.711714418637
-0.715820364368
-0.589775373337
-0.590925461686
-0.615499483533
-0.606690086831
-0.591232542443
-0.590494228661
-0.590088531357
-0.621112155653
-0.619946442891
-0.626628914328
-0.611983544199
-0.719493135769
-0.683840476901
-0.638404331585
-0.684345601952
-0.691645558245
-0.617111440773
-0.604846880948
-0.61121022964
-0.611924079595
-0.645542896364
-0.635362660224
-0.624159561518
0.331314664701
0.309012629084
0.312523339387
0.318005215817
0.338752917818
-0.525945090417
-0.521113334514
-0.523101287257
-0.518058844184
-0.524751433852
0.336555822832
0.338367552809
0.326629513573
0.334559110309
0.333105863743
0.327162494436
0.34034681116
-0.523813467368
-0.522648467499
-0.523707599523
0.330731025165
0.31019636718
0.318942784937
0.322714284882
0.327237003167
0.319623047976
0.329382405912
0.338011173672
0.326598449618
0.347470536526
0.333073605518
0.355356625385
0.324731976161
0.341228849565
-0.521524462255
-0.522584289942
-0.512346108192
-0.52369406428
0.293590632709
0.282506950138
0.283801563099
-0.509594189987
0.284804817253
0.264173440745
0.278182022623
0.294718672395
0.290623787057
0.286223511957
0.271774771867
0.261936547546
0.274075226871
-0.518474237766
-0.516161305258
-0.517954814207
0.259014303796
0.23936826646
0.255962943311
0.242204639339
0.257709333482
0.258708710434
0.242159717037
0.273034120808
0.284863399998
0.285028837318
0.271576561547
0.272276414836
0.285580732501
0.272591947298
0.262109138262
0.262760026703
0.247563149914
0.245150535581
0.262759906712
0.261081925562
0.246415297012
0.29469654447
0.281957967104
0.28214100217
0.280250055355
0.258450911694
0.319030103916
0.270698456355
-0.518989680767
-0.52150953868
-0.517805786203
0.30167176755
0.291378202259
0.319724037979
0.30988125443
0.284205851716
0.339528675745
0.271213548514
0.258094027468
0.270611919581
-0.522072179475
-0.518900225345
-0.518619191033
0.0540443423045
0.103458678155
0.0980252677802
0.161385287127
0.135802663783
0.132943247029
0.290514473882
0.25480482426
0.226598429528
0.27971510237
0.238092228906
0.18544164639
0.209789502147
0.210486277405
0.201101064042
0.174441892444
0.193949542436
0.171740028784
0.199205033771
0.177125494883
0.197021587128
0.0812887476388
0.101215750105
0.0843982580898
0.142549603474
0.0527432341567
0.129780026531
0.104811376592
0.017546397056
-0.0678288262128
-0.00933518074553
-0.0796201089498
-0.00487319595654
0.000417924714429
-0.0468211085957
0.0636418473991
0.092582530388
0.0463299465573
0.0983544057027
0.0473865355135
0.0489609449268
0.112059493423
0.0349723451597
0.0148779384733
-0.071201694859
-0.0033039866253
0.00248599122826
-0.0275765171138
0.060375492119
0.255104241959
0.224952752826
0.238433636402
0.258529375365
0.247486598536
0.259524839484
0.23546019907
0.254593466057
0.242846133377
0.181284195814
0.17772264951
0.161186718198
0.0991580061439
0.114183731003
0.130161736015
0.202008261284
0.110152451592
0.142359557349
0.172277459832
0.141709182699
0.151228094345
0.19031965802
0.154456701938
0.167860072183
0.1898258107
0.194009290895
0.162692892386
0.184151289769
0.204815550722
0.224767367774
0.188391075815
0.223721224117
0.196232747387
0.228321543229
0.204272749644
0.182545138018
0.132381992299
0.131232071771
0.158997811249
0.16723472675
0.146993472512
0.178396285569
0.211761820899
0.211635137182
0.235062833223
0.228867213646
0.233599591742
0.214286768581
0.208905069799
0.122608700616
0.0968116675913
0.151876933031
0.143306108516
0.156198248227
0.116176830724
0.108560062313
0.0986559601443
0.0621327272285
0.0256364385757
0.0838733683747
0.0564170068134
0.102358540073
0.0768534664706
0.089959030732
0.0503520659234
0.024408005575
0.00886363733126
0.0437157987403
0.081797018114
0.0620848290077
0.129537752678
0.149252797671
0.164282087746
0.121028362058
0.132597299165
0.161880068905
0.116023476235
0.219181417753
0.196862606376
0.213751242796
0.243211064628
0.226840168739
0.228138806947
0.232275292771
0.244317566177
0.229281250969
0.192434570747
0.209986155812
0.211416774797
0.355631844452
0.350299913641
0.356174570534
0.349993810831
0.355956326388
0.350372143134
0.355181605757
0.359780331862
0.364856524039
0.360243819983
0.364459965502
0.354492155251
0.349510588596
0.355631277279
0.34908833968
-0.522869332821
0.352333695373
0.347344698612
0.349520043794
-0.511176022838
-0.520267243602
-0.516933471496
-0.520100301325
-0.519743704857
-0.522086045957
-0.518613081204
-0.523064081198
-0.517044061102
-0.520804836507
-0.52435484368
-0.517298670858
-0.511935265303
-0.520263864369
0.355052296179
-0.523459991932
0.362859389966
-0.520229262512
-0.52355092729
-0.517939584059
-0.522798257957
-0.525438164322
-0.523285702529
-0.525761674741
-0.516621491754
0.343564198326
0.351578480989
0.345465988732
0.359660037341
0.354664594527
0.359206129449
-0.530127693385