/*--------------------------------*- C++ -*----------------------------------*\
| =========                 |                                                 |
| \\      /  F ield         | OpenFOAM: The Open Source CFD Toolbox           |
|  \\    /   O peration     | Version:  2406                                  |
|   \\  /    A nd           | Website:  www.openfoam.com                      |
|    \\/     M anipulation  |                                                 |
\*---------------------------------------------------------------------------*/
FoamFile
{
    version     2.0;
    format      ascii;
    arch        "LSB;label=32;scalar=64";
    class       surfaceScalarField;
    location    "0.01";
    object      phi;
}
// * * * * * * * * * * * * * * * * * * * * * * * * * * * * * * * * * * * * * //

dimensions      [0 3 -1 0 0 0 0];

oriented        oriented;

internalField   nonuniform List<scalar> 
87349
(
-4.13945511838e-11
1.07926205603e-11
-1.28057088524e-11
-1.56336550078e-11
5.90407605465e-11
-1.21285518702e-09
-8.52264585703e-11
9.04385131656e-09
1.485820135e-09
-9.62255271814e-09
6.33339598715e-10
-9.72506837091e-11
-6.6679074719e-11
-7.84477881384e-11
-5.42241502083e-11
8.52798453058e-09
-1.0283415517e-09
-9.01479981022e-09
4.59206341758e-10
-4.3093811594e-11
-3.56062291551e-11
-2.40291249189e-11
-5.17362371035e-08
9.00161969651e-09
-8.60834407377e-09
-6.45706016239e-09
4.74172154569e-08
3.259528278e-08
-3.98770100091e-10
-4.99979668373e-09
-4.74555639845e-10
1.22899322326e-09
5.33834990658e-09
-3.75851824697e-10
-4.09412068379e-10
-4.16736578775e-10
5.34086035592e-10
2.82011833223e-11
1.38418484591e-09
-1.65995472121e-11
2.90920634724e-11
2.5701506467e-11
2.7812101913e-11
1.32243139371e-09
1.80295247429e-09
1.79292655948e-09
-1.35967723266e-09
-1.28239366201e-09
-1.91439054036e-09
-1.97053599394e-09
1.48409415987e-10
9.20697496199e-11
-1.01914258516e-09
1.11700682919e-09
-1.92914258516e-10
-1.45428388494e-10
1.62569591589e-09
-3.8056779174e-11
8.70678379777e-11
1.373741922e-10
-2.91457938362e-10
-6.70383876674e-10
6.92265129475e-11
1.0379716788e-10
3.8101853183e-11
8.06938681646e-11
-3.6516425607e-10
9.59065398575e-11
-3.22670912016e-10
1.46923978221e-10
-6.97061246152e-10
-3.30917717223e-09
8.77916663576e-10
-8.26361457297e-10
9.61936163346e-10
3.7532047468e-09
-3.25739104031e-10
-3.41648291062e-10
-4.00630993811e-10
-3.89496969628e-10
-6.57286896007e-09
6.47807551207e-09
-2.78873271239e-09
6.98933128096e-11
2.49262638211e-09
3.21010233272e-10
-1.82331881201e-09
-1.1270551322e-08
1.11952077029e-09
-2.61178315741e-10
-2.1871350309e-10
2.50462528425e-09
2.92145037543e-09
2.05466483035e-09
-2.86009825717e-10
2.54224416248e-09
-2.38347015912e-10
2.95556582774e-09
-1.01231767665e-08
-1.31180910695e-09
1.00378898207e-10
1.01482368844e-08
1.43036695523e-09
-5.22364997549e-10
9.27438756923e-11
9.96865461728e-11
8.59363276741e-11
-1.1831642942e-08
1.17912547363e-08
-1.76749457451e-09
-2.76335846322e-10
3.8451683466e-11
2.59408242464e-11
1.95625416061e-09
3.78286649159e-11
2.5740061838e-11
1.28884977398e-10
-2.88779218791e-10
-9.91043228601e-09
1.49157664681e-09
-8.24056812967e-10
1.11929847005e-10
1.3361582345e-10
1.50512917479e-10
-3.05347875481e-10
-4.08827261337e-10
-4.02301731133e-10
-1.72902017261e-09
-1.16927713124e-08
-6.90002998836e-10
8.28546710406e-11
9.22320988237e-11
1.93766010433e-09
8.00832311829e-11
8.72683743504e-11
1.57803201237e-11
1.48253403962e-09
7.36584206041e-10
-7.21004936248e-09
1.14034949945e-10
1.62871238279e-11
1.37887240733e-11
1.5080490566e-11
1.52312580025e-09
1.89207583036e-09
1.93477585569e-09
8.75163382194e-11
-2.06923269372e-09
9.47749375607e-09
-1.2094312362e-09
-5.74364579737e-10
1.08702852994e-10
5.27312411141e-11
6.79306070821e-11
-2.01271560638e-09
-2.65654762913e-09
-2.58389714511e-09
1.00246939281e-10
-1.21950590503e-09
1.27300260054e-09
1.51230438214e-10
-1.56583361816e-10
-3.85292828877e-11
-9.17421790135e-10
1.52507760055e-10
5.48861734384e-11
-4.89837686028e-11
7.97541885267e-10
1.79031346008e-08
-1.74130337645e-08
-5.94920506093e-08
5.64366839973e-08
6.80986757273e-08
-1.51220832722e-08
-1.51876095505e-08
-1.78505143327e-08
-1.73730985534e-08
1.86205420026e-08
-6.41970278389e-08
6.00956830332e-08
-1.4744707103e-08
-1.4426578756e-08
-1.71122197538e-08
-1.70445700665e-08
6.67121005398e-08
-8.76434093658e-10
1.18881552451e-10
-1.60928344298e-11
-3.95750103071e-11
7.74672797792e-10
-4.58455513003e-11
5.87706131585e-11
-9.87053888463e-10
-2.8544771927e-11
-2.68128672325e-11
-9.31349239557e-10
-1.83748966395e-11
-1.20187220034e-09
-1.65403731291e-10
-1.63471258409e-10
-1.771478972e-10
1.67516439112e-09
1.27410324816e-09
1.63308229657e-09
1.66242118869e-09
2.30612401715e-09
2.35327276094e-09
2.71962018047e-12
-9.46235689361e-13
-4.96937297754e-12
-3.82016104144e-11
-2.28285430602e-11
-1.32385663358e-11
3.7721108988e-11
9.13528132308e-12
-8.90802493257e-10
-1.0831836328e-10
-1.31698443391e-10
-1.22367643784e-10
1.07877338014e-09
2.18860861564e-09
1.60914923465e-09
1.59818985422e-09
2.22334725341e-09
-1.98997188321e-12
-1.9080153112e-11
9.56336066467e-13
-1.28994771668e-09
1.60789144003e-08
-1.41781481628e-08
1.33110175182e-09
-3.87917440974e-10
3.32522516454e-12
1.09994281981e-11
3.87132523113e-12
3.69721221849e-10
-9.79195188177e-09
-1.26834301332e-09
1.12162082541e-08
1.26584741469e-09
-1.63016960113e-09
-6.89366142857e-09
7.585048486e-09
1.19091746057e-09
1.14690228149e-11
8.60926848382e-12
-3.79817891468e-10
-2.62195221023e-11
1.18280507454e-10
-1.5639066143e-09
-8.92474123037e-09
1.13329138687e-09
6.23264114355e-11
-3.12947473885e-11
1.01856341327e-10
1.25459634178e-09
1.66616572994e-10
-1.53154214709e-10
-1.34613603617e-11
-4.92273493981e-10
-1.65379251274e-08
6.82913936853e-11
3.77590092903e-11
4.63011774722e-09
4.40500131186e-09
2.55476230318e-10
4.65394181573e-09
-2.39498235659e-11
2.75108699641e-11
2.03782071556e-10
2.59721942521e-10
1.9382322171e-10
4.4099241843e-09
1.07283621648e-09
-1.25758196155e-08
1.36756666766e-08
-8.74122348884e-10
1.33133500712e-10
1.46122630745e-10
1.48414514562e-10
1.34096001925e-10
1.73292370044e-08
2.45425459515e-10
3.68944735467e-11
-1.60590334021e-08
1.10878097202e-10
1.22037308921e-10
1.2106205709e-10
1.14959295069e-10
-1.2738937454e-08
1.38481680525e-08
4.10905698845e-10
6.22218086785e-11
5.74253012176e-11
-2.51800176929e-10
5.81093201828e-11
5.83545599949e-11
2.52560406021e-08
-1.67880561608e-09
-2.31543908888e-08
5.35914211527e-10
6.45811310659e-10
5.88589671859e-10
5.82331192055e-10
6.24121514413e-10
5.46260778466e-10
5.31483673025e-10
5.89304259287e-10
-2.46219016967e-10
5.58484698468e-10
1.90727710505e-08
2.21198348372e-10
2.00490559756e-10
1.98959025321e-10
2.26071624852e-10
1.8801098501e-09
1.97905695579e-08
-2.48838115559e-08
1.05719399194e-08
8.9190170237e-10
-2.1987694469e-08
2.37024435716e-08
1.08440136057e-09
9.60463865074e-10
1.07054671739e-09
9.7404093267e-10
-2.49253965674e-10
1.50243096745e-10
1.24921893792e-09
2.0846685e-10
-8.56443985107e-10
-5.02229501674e-10
1.95261323378e-08
2.31170576041e-09
-2.54023297181e-08
1.12186691115e-08
2.64977841381e-09
-2.44609446549e-08
2.6516833037e-08
-2.31410897617e-09
1.1214716179e-09
9.41223731761e-10
1.10721279166e-09
9.58455139208e-10
-1.03099027721e-11
8.54664714344e-10
1.71768749567e-09
-9.50512742328e-10
3.60208134478e-11
-1.64754107818e-09
3.56409301558e-09
2.02406420747e-08
-3.15851528197e-09
-2.66133600712e-08
1.25194351163e-08
-2.24767206151e-08
2.43073618183e-08
1.40716711432e-09
1.00362727161e-09
9.35525354329e-10
1.04291524478e-09
9.1027721935e-10
2.24695187769e-10
1.24447256077e-09
-2.46884131217e-10
-9.30174684072e-10
-5.41366868941e-10
2.14094813052e-08
-2.11129719066e-08
-5.07604609791e-09
9.45664952987e-09
5.18285415097e-09
2.73883467662e-08
1.02287421714e-09
9.359669011e-10
8.49243817168e-10
1.10678467997e-09
7.71462800705e-10
8.80509470728e-10
9.13213727682e-10
7.82162600629e-10
8.69153287269e-09
-8.6220817125e-09
3.37296253106e-10
-7.20926443598e-10
-7.61215337067e-10
-9.63001191826e-10
-8.88784997332e-10
6.41527296595e-11
-2.97266652798e-10
-1.59198900354e-10
1.97190739872e-08
4.1412023955e-09
-2.65473294305e-08
1.31363146095e-08
1.05669879254e-08
-9.02532728728e-10
-1.15122550909e-08
-1.71168525114e-09
-1.27591426653e-09
1.42155231741e-09
-1.35214918145e-09
-1.80686066232e-09
1.63923940372e-08
-1.00020657527e-09
-1.52705950788e-08
2.84070404957e-10
3.02611623325e-10
2.94483483831e-10
2.91936657714e-10
-4.21336777721e-10
1.10568085677e-11
2.02280008816e-11
4.01033914374e-10
-1.24757894845e-08
1.35685881129e-08
1.30449496591e-09
1.86178574403e-10
1.71833922904e-10
1.77304345041e-10
1.78296976087e-10
1.71269595203e-08
5.12896779622e-10
-1.58914866639e-08
1.86206007e-10
1.52213322504e-10
1.6001723958e-10
1.78611407635e-10
-1.03960632382e-08
1.20379480097e-08
1.13310243203e-09
-1.39358523456e-09
-9.55710702307e-10
1.75815572501e-08
4.16072557649e-10
3.78594835176e-10
3.89494239737e-10
4.04771139533e-10
2.57351355129e-10
-2.06535048357e-08
6.99432647762e-10
7.37439707605e-10
7.49826327119e-10
6.89790614179e-10
-6.3740700918e-10
1.79193593801e-08
3.85244898586e-10
3.6574447547e-10
3.5929572608e-10
3.92226004276e-10
-2.26591398826e-08
-1.46538623665e-09
5.86561138809e-10
6.41925368681e-10
5.7716172735e-10
6.5599482861e-10
6.54101501298e-11
1.88560439383e-08
2.37285859607e-10
1.9844030416e-10
2.22233163425e-10
2.26267691625e-10
-2.10861461225e-08
6.83162578119e-10
6.43689692176e-10
7.09952886888e-10
6.8476236975e-10
6.65147443778e-10
-9.48212956603e-09
1.02481905767e-08
1.3799332747e-09
7.75654959855e-11
8.28907472452e-11
-1.17963870016e-09
7.03687651025e-11
6.4385705111e-11
-1.00136900248e-09
-1.41767503902e-10
1.06115351468e-09
1.26737381685e-10
5.56187381363e-11
1.32648524045e-09
-1.14879921524e-09
-1.17631181253e-08
1.24611073283e-10
1.28349144875e-10
1.19132375211e-10
1.31551359153e-10
-1.18886215221e-08
7.34661805896e-10
3.6279431427e-11
3.6778467851e-11
-5.57780315339e-10
4.00837600859e-11
4.04146541574e-11
-9.31309902657e-09
1.91656682645e-09
-1.72909850498e-09
1.01381434222e-08
1.39323288917e-10
1.4580172293e-10
1.36374690504e-10
1.48685987396e-10
1.59105778509e-09
-8.87335924244e-09
8.96576446751e-11
8.41225082678e-11
-1.40057927327e-09
7.27423580001e-11
7.98090954868e-11
-1.75377759951e-10
-9.07196824381e-10
1.31154937434e-10
7.89112808845e-11
1.55351432809e-09
-1.62949672245e-09
-7.85620387397e-09
6.09357050624e-10
-6.8372954475e-09
7.71320096819e-09
-1.58295666355e-09
1.08158587886e-09
2.41532713366e-11
-4.18270605913e-10
-8.07412053732e-10
8.79781418095e-10
-1.26645224152e-10
1.55845739301e-09
-1.16564073949e-08
1.54512111953e-10
1.50177957462e-10
1.55008283415e-10
1.50694865738e-10
-1.55988745245e-10
2.63013327793e-10
-3.30110817233e-11
-9.52739848858e-09
1.01440325652e-09
-1.63823405748e-09
-8.3571460049e-09
1.6738950382e-09
7.47069158843e-10
9.48430548583e-09
-1.84474587606e-09
-6.37725902856e-09
1.14259915047e-09
-1.69131342801e-09
-6.43483864543e-09
1.02587192216e-09
-8.21090221285e-11
-7.71159923023e-10
-1.29546128166e-10
-1.04045944926e-10
-5.19544541832e-11
1.63909589057e-09
-7.3050282743e-09
7.30221815626e-10
-2.56851372819e-10
2.27814184929e-10
-1.86121036705e-10
-3.33733664312e-11
9.13648608892e-10
3.55199801863e-10
3.14560328429e-09
-3.74148520762e-10
-7.91299351749e-10
-3.20905883213e-10
-2.73708569832e-10
-2.6057816294e-10
-3.255872755e-10
-3.35642605106e-10
4.24539237692e-10
-2.81778913464e-10
-2.08848229841e-10
3.39281934266e-11
9.72494458011e-11
1.29825403508e-10
1.32880753446e-09
2.45454049217e-09
2.04762585516e-08
8.06001911467e-09
-5.61852483599e-08
1.57827648659e-08
-1.54153062019e-08
-2.00858050042e-08
7.35620699125e-08
1.18957805167e-08
7.95346189732e-08
-2.01646900527e-08
-2.16969942544e-08
1.26865667175e-09
-1.22297288653e-09
-1.90021843964e-09
-1.94975204401e-09
1.2181792584e-08
-1.10535808108e-08
1.17516207741e-08
-7.63471425929e-08
-1.11669202326e-08
6.8350359749e-08
6.98285368152e-08
3.8741971171e-08
3.06177465166e-07
-6.02736463896e-08
-5.90753931095e-08
-5.57321703298e-08
-5.63640278854e-08
1.72720466612e-07
-7.47807101093e-08
1.33141082069e-08
6.58801717394e-08
7.1310591558e-08
3.08420096627e-07
1.63403343311e-07
-5.53131681604e-08
-5.65848440254e-08
-5.32625976842e-08
-5.25680383436e-08
4.71759408758e-08
-1.01108758211e-09
8.52207969203e-11
2.24990289299e-10
-7.89563704979e-11
-7.86082785284e-11
8.5844253199e-10
5.16931495343e-11
-7.95600715121e-10
2.38231031634e-11
7.94196278826e-10
-7.41118205734e-11
5.21900035484e-12
1.84255130321e-10
2.45671768305e-10
-4.63779252106e-10
2.86329775788e-11
1.10871600893e-10
7.4103456288e-11
7.07542143011e-10
-1.34869124915e-10
-7.57647975279e-10
-4.98754143946e-10
-1.16957479149e-10
1.11089124818e-10
3.89522623022e-10
1.15099887971e-10
7.98958481004e-11
3.76731926713e-10
-4.17812264328e-10
-3.88134476269e-11
2.75050190901e-09
2.05377366871e-08
8.10966005776e-09
-5.76411376281e-08
5.33804208754e-08
6.93670138853e-08
-1.50530932038e-08
-1.48830280694e-08
-1.80344180321e-08
-1.87659482461e-08
-1.32055806103e-08
1.48677332243e-08
-2.0526209391e-08
-2.0191004602e-08
-1.99187558332e-08
-2.00391635672e-08
2.08872449779e-09
7.99929506696e-09
-1.65781585699e-09
-2.43710421103e-09
-2.35243116935e-09
-1.743599929e-09
1.29150355836e-08
-1.30944086817e-08
7.7411195684e-08
-2.01145463235e-08
-2.02263996065e-08
-2.00753009128e-08
-2.07348757971e-08
3.84643280429e-09
-3.3572883013e-09
2.10813109914e-08
8.48695326828e-09
5.8234331892e-09
-1.27576402687e-09
-1.81348298692e-09
-1.79198976508e-09
1.37697519069e-09
1.18365982286e-08
-1.16426446486e-08
-1.5008941945e-09
1.34303442862e-09
1.57853049189e-10
-5.98941496673e-11
-1.70752213708e-09
1.6526501534e-09
-6.73370751707e-11
1.82096204097e-10
-5.1909706672e-09
2.20106684358e-08
1.22843328434e-08
5.08102689865e-09
-6.87458063323e-08
6.67142765241e-08
6.58759440741e-08
-1.45745731715e-08
-1.43195186484e-08
-1.68198730715e-08
-1.69029066449e-08
1.73930603733e-08
1.71005978244e-08
-2.06611507924e-08
-2.09010736378e-08
-2.05732979292e-08
-2.05669726479e-08
7.1203623423e-09
2.59075835871e-09
1.21587566215e-08
-1.10896463088e-08
7.35470801629e-08
-2.10774052544e-08
-2.07932447693e-08
-2.02532097698e-08
-2.01791217895e-08
1.82481602608e-08
4.368947919e-09
2.14085199182e-08
8.35352187136e-09
7.53337649599e-09
-3.08323553179e-09
1.24112951071e-08
-9.86665210752e-09
3.57219605675e-09
-1.57516304237e-09
-1.02223595086e-10
1.48848207045e-09
5.6887091539e-10
-5.36494457835e-10
1.56528277914e-10
1.32547404375e-10
-2.15403599057e-10
-9.12316746762e-11
1.74088369926e-10
-2.64556925512e-10
2.95812055717e-10
-2.38748836078e-10
-2.01235607763e-10
2.47762315692e-10
1.60965729207e-10
-1.65248572298e-09
1.72672499984e-09
-3.61116297063e-10
2.26959041152e-10
1.73124950963e-11
1.43380597417e-11
1.13595469719e-09
-2.74813487367e-11
-1.14012396424e-09
-6.89000352274e-10
7.05342905944e-11
-1.26917163139e-11
2.45563919403e-12
-1.5846298672e-11
6.44548840307e-10
-8.64320010165e-10
1.49121435166e-11
8.66379256468e-10
3.47084948565e-11
2.41740866457e-10
2.32025505318e-10
-4.78951160504e-10
1.03875898092e-11
4.34774981296e-11
8.5705324256e-10
7.96587768629e-11
-8.69331586392e-10
-1.31978845959e-09
1.18983231986e-10
6.91199974238e-11
1.24361466781e-09
-9.87589511495e-11
-1.31705864065e-11
1.82284029559e-10
4.50323622865e-11
3.07751733219e-10
-4.72467606211e-10
-6.25996383895e-11
1.88079950263e-10
-8.29266877291e-10
1.36197457714e-10
5.04989535541e-10
-7.07089388783e-11
-6.32311239733e-10
2.24554111259e-11
6.22029569886e-10
5.85350382711e-11
8.39904964576e-11
1.46245741865e-10
-7.97297334606e-11
-1.10524317806e-09
-5.63687143693e-11
-6.80881688189e-11
-1.10537963003e-09
-9.09886488539e-13
1.08042440678e-09
7.92464153947e-11
1.4706957398e-11
4.12597261652e-11
1.82367274011e-11
-5.83281718175e-11
-7.96782449122e-10
1.4054462989e-10
-1.31189793455e-09
4.60614266084e-11
1.25360390353e-09
-1.17927576067e-10
-1.03843446015e-11
-9.9522653692e-11
6.60761719854e-11
-5.6003820129e-10
9.47170734619e-11
4.74309437579e-11
-8.3567042502e-10
1.74343271995e-11
-3.91393238391e-11
8.09944306324e-10
1.97072646912e-10
-1.34325905321e-09
-5.07711686932e-12
-2.9239463097e-11
1.35873461258e-09
-1.78231694499e-10
-2.01088443011e-11
3.63270410325e-12
1.90568338893e-11
-7.07396238941e-10
1.57955948905e-11
-1.00167190123e-09
-2.71425137625e-11
9.95350152013e-10
-6.13524513891e-11
2.67089639402e-11
1.49631760386e-11
3.11389400659e-11
-8.69182055756e-10
-7.23999588683e-11
-6.37836463472e-10
-2.2841992101e-11
6.39356156785e-10
9.37232873646e-11
1.28525372129e-10
4.76990355747e-11
-1.37456750733e-09
-5.56077738473e-11
-6.5852267716e-11
-9.79467559664e-10
3.53535767569e-11
6.17759389605e-11
9.29755797897e-10
1.34588254243e-12
1.123355455e-10
1.83504329183e-12
-8.31076980746e-12
-1.07206289404e-10
-3.40853356707e-12
-5.00988106686e-11
4.66854719904e-11
6.2565856962e-12
5.64848979211e-13
2.18984199751e-11
-1.49883159616e-10
1.09283928754e-11
1.31259390317e-10
-1.42032778918e-11
-3.8462066035e-11
2.40068855071e-10
-1.36114285791e-10
-1.31424221412e-10
6.59314149491e-11
-2.22336524064e-12
1.03313366372e-11
-8.10761465592e-12
3.7368158831e-11
1.99328368831e-10
-9.37293490793e-11
-5.5852094534e-11
-8.71158972565e-11
-1.68504715742e-10
-7.95500019533e-09
-8.32147170133e-11
-9.05420430616e-11
-9.95176359043e-11
9.19388438014e-10
2.09502251018e-09
1.5054421483e-09
1.53648774094e-09
2.06077722671e-09
-2.02346962261e-10
-1.30273722951e-10
-2.08052942625e-10
8.89183610091e-10
9.50032569812e-11
-1.27929990307e-09
-6.06532904086e-11
5.97501158717e-10
3.37618371644e-11
9.2637865677e-10
4.62213532363e-10
-1.2335904045e-09
-6.4867567841e-12
-1.89454012889e-11
2.02378847806e-11
-4.70733310336e-12
1.39130277579e-09
-1.56261309327e-09
-1.2701412177e-08
-1.33776152714e-08
-9.51396648057e-11
-1.58396626377e-10
3.40836843262e-09
-4.04029559694e-11
-3.62333823858e-11
-2.95639428838e-12
-2.25333175301e-10
-1.96586101646e-10
-2.56350873103e-10
3.74698917477e-09
3.44920957328e-09
3.75111344754e-09
1.54518871812e-11
-3.18836623934e-10
-1.23819914294e-08
3.85798137311e-11
-3.30480130317e-12
2.42248951154e-11
-3.27940250203e-10
-2.70280213106e-10
-3.04233655114e-10
-1.77925556958e-09
-2.18215964546e-10
-5.83560312088e-11
-5.1346471573e-12
2.3311124247e-10
1.82785085202e-09
2.1367174706e-10
6.00025403817e-11
1.68450090838e-11
-2.77396442568e-10
-1.31221234623e-11
1.96735694633e-09
-1.93063279904e-10
-2.95699000796e-11
2.16238545803e-10
-1.92363626089e-09
-3.73264574083e-11
5.91800054625e-12
1.98335871765e-09
-1.68455037546e-10
-2.08077537205e-09
1.64809628541e-10
7.17902605114e-11
2.23167447035e-11
1.38370529244e-10
-1.88210381164e-11
-1.72090187098e-10
2.04553897689e-10
2.00561489011e-09
-5.52876364851e-11
-3.25157030066e-10
3.8170464262e-13
-4.73682056434e-11
3.54262595578e-10
1.78811304906e-11
-2.27539672609e-10
-5.43018009834e-11
-3.46794504206e-12
2.45357681171e-10
-1.73931863413e-09
-1.62202162306e-09
-2.65443515138e-10
-6.69243057609e-11
3.0085134885e-10
-5.46184044838e-12
1.65899987483e-09
-3.68361785572e-10
-1.46894068572e-09
-8.53913574661e-11
8.02262296596e-12
1.50419445511e-09
4.10476647079e-10
-1.97766750634e-11
-6.12735272256e-11
-2.76778659272e-10
3.26553243301e-11
-2.88086775208e-10
-6.73117692664e-11
3.34616759483e-10
-1.5843318034e-09
-1.69222415898e-11
8.24677344535e-10
5.56487692327e-11
-9.87409914495e-10
-4.39645005864e-11
2.11044175839e-10
6.02134794029e-11
6.27893049753e-10
-4.86976741186e-11
2.57039411024e-10
2.06699037488e-10
-1.69961817955e-10
-9.23680757257e-10
-1.32217300134e-10
-1.96294545517e-09
-2.57148963462e-10
-2.20056449541e-10
1.55658502656e-10
-1.09567124043e-09
-1.76871850639e-10
-8.86788822469e-11
-1.36310751937e-09
6.04839529453e-11
2.14530294781e-11
1.36984951313e-09
-1.63745080046e-08
-2.51645251226e-10
1.78867827441e-08
1.00871349991e-10
1.08541382578e-10
1.16894560126e-10
8.18976168211e-11
-2.00238163172e-10
-1.50353596117e-08
7.03913688682e-11
7.86890695485e-11
4.10576950284e-10
5.61673999739e-11
3.87802369491e-11
8.69315604843e-12
-1.49568804171e-08
1.00542715296e-10
1.04556348201e-10
1.10541899012e-10
1.00356797658e-10
-3.40770954412e-11
1.43968043935e-09
-1.41928466278e-09
3.73964052277e-11
-2.37150512507e-11
-1.03821217894e-09
2.85077449134e-10
6.23708640559e-11
-9.98395369853e-11
8.75806797043e-10
1.32742443506e-10
-2.49711845055e-10
4.60520251391e-10
-4.45286756061e-10
6.46501359537e-11
1.55132018003e-09
8.8073151587e-11
8.8511307629e-11
-1.03706641691e-10
-1.62419753031e-09
9.71030079769e-11
-1.95534000339e-09
-2.9186782584e-11
2.00562657109e-09
-9.43857168099e-11
-6.09720521601e-10
1.48050634246e-08
8.61538557062e-10
1.24547539525e-10
1.34431914909e-10
1.12120018005e-10
1.43350052175e-10
1.3745824813e-08
-6.20385486778e-10
-1.26263401984e-08
1.00729995524e-10
8.61470268489e-11
8.31527924664e-11
1.04268995655e-10
1.49220416128e-08
-3.23931663854e-10
8.77865237377e-11
7.15786050194e-11
7.38253976327e-11
7.20040094791e-11
2.15313542409e-09
6.90270653838e-11
-4.88072584397e-11
-2.11059808763e-09
1.13403386965e-11
-5.73203281e-11
-1.69003647532e-09
1.73788878257e-09
6.78537546776e-11
5.26971796191e-11
1.97720236877e-11
1.59529846366e-10
4.93769226375e-12
9.45887669515e-11
1.10513955398e-10
-8.0730646986e-11
5.83156707516e-10
4.5668252841e-11
1.50319950714e-09
-8.62536986851e-11
-1.6214029389e-08
1.75325544733e-08
1.17137327457e-10
1.16275494025e-10
1.16870837152e-10
1.21839702466e-10
-2.55876576228e-10
5.35119445157e-10
1.11308918968e-10
1.40310582298e-10
1.18492853838e-10
1.33077380178e-10
2.06931787254e-09
-1.16407309042e-10
8.96755811257e-11
1.23303655051e-10
-2.16588904486e-09
1.07810974426e-10
1.0021093079e-10
1.09621237383e-10
9.89132648043e-11
1.55941098677e-09
-1.53059478621e-09
2.10911798945e-11
-8.39980274623e-11
4.55366260065e-11
-3.98140176524e-12
2.86415049204e-11
2.17750956835e-09
7.58289833167e-11
4.06428121126e-11
-1.39153368057e-09
1.48388503271e-10
6.39188866023e-11
5.90508011616e-11
-6.74056772481e-12
4.42571227876e-11
5.47816533177e-11
1.38130917423e-08
-1.27137556223e-08
6.12313242202e-11
5.13657876082e-11
5.92841119979e-11
5.18841315265e-11
6.85539658143e-11
6.83593544077e-11
6.81199548298e-11
6.73043419381e-11
-1.57982852972e-09
1.49412214891e-09
6.16540693978e-11
9.94581428571e-11
1.18386438056e-09
1.57033891306e-10
1.64962054074e-10
-1.15038544178e-10
-1.39082129056e-09
-8.36228764551e-10
8.66056827043e-11
1.48204889009e-10
1.14000001727e-10
1.39016655979e-10
2.7608633324e-10
3.43878644822e-10
3.30810478488e-10
2.61995863037e-10
5.00071542314e-09
5.03331672528e-09
4.84526495799e-09
4.81816564583e-09
5.47384555552e-09
-4.03647347887e-10
4.73117127277e-10
-5.25347999688e-09
5.32160648616e-10
-2.01071025971e-12
1.4489054191e-09
4.83744671171e-11
-5.56023861109e-11
-2.69114043485e-10
-1.65209394323e-09
1.31330531603e-10
1.57531920559e-09
2.14558788033e-10
3.82714330994e-09
-5.30354231415e-11
-2.14545984754e-10
-3.19330205637e-10
-3.24023174633e-09
8.28863592329e-10
6.38926332467e-09
-7.3525187714e-10
-6.1959416416e-09
1.06767680257e-09
1.57419396459e-09
-2.09469238879e-08
-1.21262988026e-09
4.07168013585e-10
4.09021600297e-10
3.85224313141e-10
4.48712028085e-10
5.21461539015e-10
-2.12942097298e-08
3.33276263657e-10
2.71869310779e-10
2.28569202171e-10
3.34232515376e-10
5.94587083724e-09
5.91723585518e-09
5.8619950806e-09
5.89107180202e-09
6.12599389062e-10
5.07474964482e-10
6.09634349218e-10
-8.3644345224e-10
4.47741305951e-10
3.88705637405e-10
-2.35727623031e-09
-1.43700923152e-10
2.25961589046e-11
2.56227468856e-09
-8.38929490461e-11
3.09263285251e-10
-1.72406370179e-10
7.77867149758e-10
6.49210605153e-09
9.26453972553e-10
-6.29561604951e-09
1.11386042368e-09
5.83081031576e-10
5.77191884243e-09
6.38123086964e-10
9.10060125747e-11
-1.68258362488e-09
9.64909842777e-11
1.933141202e-08
2.00898021652e-10
1.73881316423e-10
1.87088929719e-10
1.76659721837e-10
9.91518330353e-10
-6.17841830141e-10
2.69177883676e-10
2.94884229387e-10
2.79778472422e-10
2.77942434564e-10
-2.04476465649e-10
3.32854388116e-11
1.44356009257e-10
2.09613923317e-09
2.41229190336e-10
1.96146027184e-10
2.09125556547e-10
2.41084154711e-10
3.3994094675e-10
3.77643110172e-10
3.10193488097e-10
1.60110270057e-09
1.63498916888e-11
-6.00728222834e-11
-1.83283433874e-10
8.97165749092e-11
-4.60663544897e-11
-2.21765606477e-09
-1.10633299172e-10
-4.93044242953e-10
-2.61171467585e-09
2.94761061952e-09
2.67782581644e-10
-3.46338110985e-10
5.19697212553e-09
-1.08783488226e-09
3.14731927327e-10
-4.07753512598e-09
1.37424269267e-09
2.46323885633e-08
1.33366255785e-09
1.4869103647e-09
1.48200371215e-09
1.32639619309e-09
1.90771917292e-10
-5.05099763881e-09
-5.45111654802e-10
5.48500942182e-09
-1.90310882606e-10
4.74249482856e-10
7.46441527041e-09
-5.89729844994e-10
-1.09940312509e-09
-6.59587660874e-09
1.63161348114e-09
-2.95327109171e-09
5.97953950387e-09
2.73382399102e-09
-1.4293271092e-09
-5.96237501742e-09
1.87623155386e-09
-1.30395924511e-09
-9.22155545338e-10
5.54683624895e-09
-1.65942776807e-09
6.61248598188e-09
-1.68319084198e-09
1.38648437402e-09
-6.15725766689e-09
2.4612887316e-11
-3.89595612849e-09
-4.32877619791e-10
4.66216328029e-09
-3.57942402992e-10
-3.05430672884e-09
3.55203445171e-09
2.70025746655e-08
1.56562198119e-09
1.95618661611e-09
1.91907506576e-09
1.58145376789e-09
2.57950430095e-08
-1.89763511283e-09
-2.3824810972e-08
1.09450325656e-09
9.28632058512e-10
1.07859933796e-09
9.38765293108e-10
-2.55788404904e-09
2.64523727337e-08
1.5001327046e-09
1.77318557446e-09
1.83670693867e-09
1.47289504258e-09
1.49419698406e-09
6.35437986725e-09
-1.30269627818e-09
-6.30889248248e-09
-1.94452027291e-09
-6.69665237193e-10
-4.03984656485e-09
4.48009209332e-09
6.30431995681e-10
-4.01012248167e-10
1.0734660079e-10
-2.40205081245e-09
2.55551295935e-09
1.98820160213e-10
8.83390424723e-10
-1.78334750983e-10
-2.61091886415e-10
1.99174364355e-10
1.23523397373e-10
1.16727582532e-10
3.54261275243e-09
-1.27989660715e-08
1.72436830224e-09
2.31486987435e-09
2.27527186951e-09
1.76099960788e-09
1.72962404138e-08
-6.62528540537e-10
-1.03103629335e-09
-7.96065618128e-10
-8.73279350104e-10
-2.41851041363e-09
-3.94359586751e-09
-3.90622904316e-09
-2.48414277471e-09
1.09897933538e-10
6.31036732736e-10
1.50808324508e-09
-8.18557535787e-11
-1.40448091794e-09
-7.6267749896e-10
-1.07502052466e-09
-3.53158251457e-09
4.88426454633e-09
-4.46967763511e-09
1.02480044511e-09
3.16721667251e-09
3.7504242228e-10
-2.29913556448e-09
-4.10141564796e-10
9.68115942274e-10
3.0187519833e-09
1.22561168999e-10
-2.51635166067e-10
1.30336521817e-10
-1.11009573693e-10
1.09746023471e-10
2.62689689604e-11
-2.15056563682e-09
2.16384033487e-09
-5.32600961122e-10
1.36760218198e-10
-1.22460010652e-09
6.39404292281e-09
-1.2039116807e-09
-1.18061019449e-09
-5.66896904783e-09
1.99441136903e-09
2.5219108042e-08
1.28150741466e-09
1.46949518965e-09
1.30754611263e-09
1.46764146176e-09
2.50499878363e-08
-2.31299377143e-08
9.90079203369e-10
8.78185762075e-10
1.01569914586e-09
8.61992460799e-10
-4.96554320763e-09
-4.72446756517e-10
5.3887721853e-09
2.66242529384e-10
2.58824694695e-08
1.32049209042e-09
1.57440016417e-09
1.52393235842e-09
1.35454267311e-09
7.13215088123e-09
9.86933284244e-10
-9.43709123096e-10
-6.56438369268e-09
-4.23574099509e-09
4.61325925061e-09
-3.01739269496e-10
-7.45454541938e-10
-2.01179417552e-09
1.89159954452e-09
-2.25510964197e-10
4.53024951297e-10
-3.16101554681e-09
5.30017421533e-09
2.79767387212e-09
1.61421773061e-09
-4.91944270824e-09
5.35829296167e-10
1.38988270266e-09
1.71324060814e-10
-1.29809826177e-09
-6.8904191824e-10
-3.43991477181e-09
4.73953615013e-09
-4.23059490655e-09
-1.23086353853e-09
3.08681522926e-09
-1.70082997215e-09
7.01796721938e-10
2.64195000335e-09
2.33287846462e-10
9.36660486344e-11
2.88895009409e-11
1.23819783295e-09
3.48459753567e-09
-2.07122223163e-09
-1.6944190682e-09
-2.53232093715e-09
-3.62035039827e-10
-5.35354095575e-10
4.74912083925e-09
9.52500035573e-10
-8.63258332072e-10
6.62384613527e-09
1.33563028788e-09
2.75620450484e-08
1.74768355889e-09
2.0925405673e-09
1.70940178784e-09
2.16929469605e-09
1.09077898956e-09
1.03476801788e-09
1.13063121354e-09
1.23687036344e-09
6.19392534285e-09
1.82256993399e-09
-6.13281697952e-09
-2.04198943634e-09
1.24860022778e-09
6.68576302997e-09
-6.78696215812e-09
-1.17222833655e-09
2.42817854291e-09
-1.80003195543e-09
1.63805213432e-09
8.23697233599e-10
-7.73839070879e-10
9.87905212168e-12
-5.65782932463e-11
-2.0005057019e-11
7.65832303388e-11
-2.10036008521e-10
3.82733930851e-10
-3.14959135518e-10
-2.51353740082e-10
1.29051511124e-10
4.23336234602e-10
-2.38124540391e-09
1.36627990997e-09
-4.05413037392e-10
2.48550129918e-09
-2.77747025928e-10
3.21709407309e-10
-2.29782685448e-10
1.40022933376e-10
3.70797213592e-09
-1.31503304876e-08
1.70700904286e-08
-2.4753468653e-09
-3.91491221606e-09
-2.46310461593e-09
-3.85383438258e-09
-9.49295309835e-09
4.37216288553e-09
4.6629098104e-10
8.97032445946e-09
-9.02146790243e-10
-8.39519936896e-10
-1.07220239519e-09
-1.16466283662e-09
-9.44647882463e-11
-3.01800276985e-10
3.2139559033e-10
4.95895862748e-10
-1.25220366147e-10
-2.2473819038e-09
3.35160870242e-10
9.88870486125e-10
3.02509380812e-09
3.52904942111e-09
-1.38383093409e-08
1.61819245123e-08
-2.34773980486e-09
-3.39760139896e-09
-3.54690844523e-09
-2.36539041367e-09
-2.60879998942e-11
-2.74089727317e-09
-7.27139808364e-12
8.7630466454e-11
-6.7127035834e-11
2.75375263281e-09
-1.55048334822e-08
-7.27279315422e-10
1.66587903579e-08
2.66185997326e-10
2.66206208279e-10
2.63152811887e-10
2.72261170392e-10
-1.27697470378e-09
-1.41189956387e-08
2.83713548444e-10
2.90600714933e-10
2.99192746591e-10
2.74882932106e-10
-7.42720394417e-11
3.20435470177e-09
-1.09852531173e-10
-3.10236855723e-09
-7.62680396886e-11
-2.88262480189e-09
-2.16208876394e-11
-2.53147781895e-10
-9.46596575657e-11
2.933207911e-09
-9.92280295952e-10
-1.43306847266e-08
2.65876438285e-10
2.55138400796e-10
2.64314811647e-10
2.55231063456e-10
-1.13792428718e-11
-1.4462742872e-11
3.00015498613e-09
-2.90525679395e-09
-8.99076406352e-11
2.0851013479e-11
1.52694595789e-11
1.27430334044e-09
6.70071251189e-12
-1.27897497138e-09