/*--------------------------------*- C++ -*----------------------------------*\
| =========                 |                                                 |
| \\      /  F ield         | OpenFOAM: The Open Source CFD Toolbox           |
|  \\    /   O peration     | Version:  2406                                  |
|   \\  /    A nd           | Website:  www.openfoam.com                      |
|    \\/     M anipulation  |                                                 |
\*---------------------------------------------------------------------------*/
FoamFile
{
    version     2.0;
    format      ascii;
    arch        "LSB;label=32;scalar=64";
    class       surfaceScalarField;
    location    "0.01";
    object      phiHbyA;
}
// * * * * * * * * * * * * * * * * * * * * * * * * * * * * * * * * * * * * * //

dimensions      [0 3 -1 0 0 0 0];

oriented        oriented;

internalField   nonuniform List<scalar> 
87349
(
-2.55331111398e-10
-1.21550579393e-10
-1.24778676792e-11
1.17873564502e-10
2.7198875735e-10
-1.65677169543e-09
-8.33809098154e-11
9.87854880622e-09
1.92110726944e-09
-1.04684577355e-08
5.88929562284e-10
-9.45778274307e-11
-6.6035561924e-11
-7.69800480528e-11
-5.31911715395e-11
9.37291481189e-09
-1.48018272614e-09
-9.87531044526e-09
4.21823937667e-10
-4.27257229608e-11
-3.55848311456e-11
-2.46891458933e-11
-5.13294808389e-08
1.13406897645e-08
-9.45527548703e-09
-7.39713607381e-09
5.14950060564e-08
3.27300959178e-08
-6.2874705573e-10
-5.1174707493e-09
1.31210520358e-10
1.24061464721e-09
6.40221965826e-09
-6.06973242594e-10
-6.58686971209e-10
-6.67163301132e-10
9.86555460949e-10
2.76940679096e-11
1.61440836399e-09
-3.19017920984e-11
2.83108633746e-11
2.45626173349e-11
2.62607956926e-11
1.55912317315e-09
2.00762317553e-09
1.99822258318e-09
-1.59488134128e-09
-1.52228322915e-09
-2.12506235858e-09
-2.1810916385e-09
2.55252997639e-10
9.13250142499e-11
-1.23547456502e-09
1.33989721068e-09
-2.94871693446e-10
-1.43724379355e-10
2.45468779949e-09
-2.60691432715e-11
8.15960817364e-11
1.31558173909e-10
-5.07579612785e-10
-8.79227817375e-10
-6.82425413828e-11
-3.6475438874e-11
-9.89558501836e-11
-6.10981311284e-11
1.6647321476e-10
9.07946788394e-11
-5.35795061845e-10
1.4266028737e-10
-9.04734275368e-10
-3.38382348046e-09
2.83238428108e-10
-2.38116565653e-10
9.51135454266e-10
4.60185160622e-09
-5.54656730519e-10
-5.67443146543e-10
-6.32213770711e-10
-6.24696219216e-10
-6.61669687274e-09
7.23215618541e-09
-3.70107571469e-09
-4.9393141322e-10
2.51266418907e-09
8.91518841505e-10
-2.26761992971e-09
-1.20646277245e-08
1.07395274053e-09
-2.49078187832e-10
-2.09138106898e-10
2.70402182237e-09
3.10434501186e-09
2.47769079722e-09
-2.7281158011e-10
2.73460167138e-09
-2.27603318947e-10
3.13432503771e-09
-1.09521474153e-08
-1.74481282233e-09
1.0077743476e-10
1.0982184485e-08
1.85008783917e-09
-5.54162567342e-10
9.40607103537e-11
1.00367118058e-10
8.73050627309e-11
-1.26176962868e-08
1.25912017085e-08
-2.18158827332e-09
-3.18483079958e-10
4.06713662525e-11
2.92782828218e-11
2.36616385442e-09
4.03562154155e-11
2.92587993051e-11
1.29300430353e-10
-4.01769103956e-10
-1.07232484086e-08
1.9106419362e-09
-8.38251592048e-10
1.12447698439e-10
1.34683281552e-10
1.50401215143e-10
-4.10736773599e-10
-4.9923619523e-10
-4.9479817867e-10
-2.13569619641e-09
-1.2486881616e-08
-7.17878096578e-10
8.47170586319e-11
9.33733483799e-11
2.33926144596e-09
8.21128308389e-11
8.85793736465e-11
1.503304292e-11
1.71433804588e-09
1.18855671104e-09
-8.09517393469e-09
9.30071496744e-11
1.59246946484e-11
1.23484719585e-11
1.39850477103e-11
1.75099491412e-09
2.09677070868e-09
2.13625998084e-09
8.92317620882e-11
-2.28826670328e-09
1.03316870537e-08
-1.61919339729e-09
-5.95309812023e-10
1.10706489939e-10
5.47174407998e-11
7.09647381884e-11
-2.23395555972e-09
-2.84639426888e-09
-2.77586825535e-09
1.04911262975e-10
-1.44849248434e-09
1.46463407966e-09
2.54950690745e-10
-1.55436547555e-10
-1.52505730711e-10
-1.12431497235e-09
1.50800821182e-10
1.72704590576e-10
-4.81212228337e-11
1.01569663832e-09
2.01191501805e-08
-1.96361328742e-08
-5.87763045781e-08
5.61408653181e-08
7.1953153225e-08
-1.62826291879e-08
-1.63685051307e-08
-1.88914700345e-08
-1.84123606743e-08
2.08510822984e-08
-6.35314274426e-08
5.98133209757e-08
-1.58533273568e-08
-1.55082583652e-08
-1.8117452248e-08
-1.80600133295e-08
7.05326560752e-08
-1.08460211688e-09
1.17932322894e-10
-1.34164800334e-10
-3.89326717969e-11
9.93019173154e-10
-1.58732160568e-10
1.75430545186e-10
-1.2020667696e-09
-2.92720088965e-11
-1.43680093709e-10
-1.14725770799e-09
-1.93856295169e-11
-1.65447154681e-09
-1.62694349833e-10
-1.59550678044e-10
-1.72151570458e-10
2.10863627843e-09
1.21760111506e-09
1.87058386508e-09
1.89416267398e-09
2.4849933529e-09
2.52843906738e-09
-1.28828722469e-10
-1.52002631494e-12
1.27296410303e-10
-2.51865673245e-10
-2.38301986596e-10
-1.27877833951e-11
2.51731738923e-10
-1.24078260117e-10
-1.34528208222e-09
-1.08153504302e-10
-1.28777189721e-10
-1.20239104236e-10
1.02851818693e-09
2.37396662948e-09
1.83988937707e-09
1.83307993167e-09
2.40589571889e-09
-2.32331975187e-12
-2.34114939906e-10
-1.30932390295e-10
-8.26450026349e-10
1.68866553596e-08
-1.48998295673e-08
1.34438217504e-09
-6.03822639354e-10
1.2942519816e-11
1.24553949371e-10
-1.09643047584e-10
5.8783984973e-10
-1.04763357126e-08
-8.64078324559e-10
1.18860182619e-08
1.26515859948e-09
-1.30851631343e-09
-7.53785272436e-09
8.21960347087e-09
1.1911136379e-09
1.2311451123e-10
-1.05588900427e-10
-6.00045172271e-10
7.9643909472e-11
3.22919707564e-10
-1.19563142124e-09
-9.56907326626e-09
1.13937994526e-09
1.82540269395e-10
-1.43409978582e-10
7.87328162684e-11
1.4574238467e-09
1.67151182499e-10
-3.78504484506e-10
-1.30945812757e-10
-9.42402926076e-10
-1.71704442596e-08
6.67678437446e-11
3.46282029618e-11
4.78117287575e-09
4.5736944792e-09
3.55476159309e-10
4.80104680407e-09
-2.71881817042e-11
2.6176298234e-11
3.05158453696e-10
3.7296194202e-10
3.11376394809e-10
4.57762796544e-09
6.35217111597e-10
-1.33594757534e-08
1.438842857e-08
-4.2604526859e-10
1.34552637284e-10
1.47168632905e-10
1.49283762678e-10
1.356643087e-10
1.80401327992e-08
-2.09835897023e-10
4.85648135978e-10
-1.67374828882e-08
1.13466448505e-10
1.23492273724e-10
1.21634119416e-10
1.18719976775e-10
-1.34785383041e-08
1.45241870264e-08
-3.12557750176e-11
6.16288275583e-11
5.71933451393e-11
1.80326876822e-10
5.80779027266e-11
5.79070910075e-11
2.57409285374e-08
-2.12418857606e-09
-2.36263957525e-08
5.04710031447e-10
6.09802845936e-10
5.51240601143e-10
5.53807251049e-10
7.20288762171e-10
6.48317954295e-10
6.47783813489e-10
7.0626740308e-10
-6.99567957028e-10
1.00444257898e-09
1.96599696145e-08
2.14600201702e-10
1.95709810254e-10
1.94187984095e-10
2.19479696114e-10
2.28343484084e-09
2.05916145913e-08
-2.55110937348e-08
1.02409214093e-08
1.35902019526e-09
-2.26995730458e-08
2.42008058277e-08
1.0506066947e-09
9.3322750206e-10
1.03745992742e-09
9.4642671203e-10
-8.87261700372e-11
2.05245877687e-10
1.5291248781e-09
5.29195513757e-11
-8.32047377741e-10
-6.97467642515e-10
2.0358191842e-08
2.69310350856e-09
-2.60211214697e-08
1.0862631386e-08
3.01808708934e-09
-2.50353996689e-08
2.68865131646e-08
-2.70974763026e-09
1.05568229529e-09
8.84206328102e-10
1.03891179255e-09
9.04234772742e-10
1.52633121062e-10
8.8136293647e-10
1.9701999337e-09
-1.17404211241e-09
-1.20087593298e-10
-1.62812694301e-09
4.05066485056e-09
2.11182920741e-08
-3.61057751558e-09
-2.73487810018e-08
1.22321377385e-08
-2.31691569989e-08
2.47820221991e-08
1.8204016503e-09
9.73420280206e-10
9.08839407513e-10
1.0098425728e-09
8.84322202109e-10
2.74052896942e-10
1.5190235369e-09
-8.65791620765e-11
-9.09524928962e-10
-7.37143412104e-10
2.22460283874e-08
-2.18977486069e-08
-5.4900089867e-09
9.1305880421e-09
5.6830806731e-09
2.77768763273e-08
9.35419765901e-10
8.71523299464e-10
7.75056586863e-10
1.02754981879e-09
8.68716717833e-10
9.55250076631e-10
1.00957143114e-09
8.88210140554e-10
9.65146199546e-09
-8.69917550073e-09
9.52386224714e-10
-9.78209729012e-10
-1.01299854858e-09
-1.19303132614e-09
-1.12312362811e-09
-9.92444333679e-11
-4.34691688934e-10
-2.91545303055e-10
2.0533334283e-08
4.58095639679e-09
-2.73580465074e-08
1.28299593487e-08
1.14646892548e-08
-1.49938767085e-09
-1.15425270859e-08
-1.9316615577e-09
-1.51735975769e-09
2.00078175352e-09
-1.58824713092e-09
-2.02381722291e-09
1.71803389381e-08
-5.38695269842e-10
-1.6005707388e-08
2.85383626359e-10
3.03182589485e-10
2.95982987819e-10
2.92602605028e-10
-6.36805323673e-10
2.26964639172e-11
1.33569117189e-10
6.17900875021e-10
-1.32716629621e-08
1.42920463155e-08
8.57254943759e-10
1.85957614747e-10
1.72252647308e-10
1.77552184309e-10
1.78269021317e-10
1.78582387326e-08
5.33795359181e-11
-1.65848939017e-08
1.90000485397e-10
1.55754646704e-10
1.64284979179e-10
1.81409184025e-10
-1.11173931375e-08
1.27360933365e-08
1.1341630734e-09
-9.68014202827e-10
-4.93070630401e-10
1.82526952753e-08
4.10122630354e-10
3.71516802814e-10
3.8268942835e-10
3.98960068515e-10
7.25131170709e-10
-2.12770499692e-08
6.89455561575e-10
7.2461338085e-10
7.36326433135e-10
6.80373824677e-10
-1.73937579026e-10
1.85744297623e-08
3.81142077194e-10
3.62315851805e-10
3.56153640216e-10
3.87619751275e-10
-2.31563281541e-08
-1.87946086436e-09
5.64197582594e-10
6.11627534542e-10
5.53151042636e-10
6.26831293229e-10
-3.89363349918e-10
1.94409069035e-08
2.34999241396e-10
1.98475357031e-10
2.20366179912e-10
2.25742379576e-10
-2.16868561888e-08
1.12096468134e-09
6.36063672464e-10
6.97664668258e-10
6.73574460253e-10
6.56636555847e-10
-1.02541516155e-08
1.09862071361e-08
9.61399129336e-10
7.85749854186e-11
8.38686220958e-11
-7.73484981991e-10
7.1759511984e-11
6.58181668555e-11
-1.21415113787e-09
-2.46586794539e-10
1.27845148521e-09
2.33380092009e-10
5.60571083867e-11
8.95544726334e-10
-7.06465527229e-10
-1.25195620349e-08
1.27745540077e-10
1.30943592878e-10
1.22196067346e-10
1.3423052291e-10
-1.26090761657e-08
2.99234281425e-10
3.88738162415e-11
3.87892561619e-11
-1.2147991483e-10
4.19723943654e-11
4.26465217822e-11
-1.01254332867e-08
1.50322599285e-09
-1.31107131933e-09
1.09053996187e-08
1.38907318113e-10
1.43989472432e-10
1.34602250035e-10
1.48139984444e-10
1.17933254303e-09
-9.63203054313e-09
9.15353913582e-11
8.60858080082e-11
-1.00003642036e-09
7.49875057688e-11
8.19590588497e-11
-2.77838467242e-10
-1.11547251283e-09
2.37651052815e-10
7.65093485559e-11
1.15202623763e-09
-1.21994128924e-09
-8.56757422084e-09
6.21401270889e-10
-7.47391535208e-09
8.3522365597e-09
-1.24183006622e-09
1.08259878532e-09
1.37735673068e-10
-6.37726859003e-10
-1.01005345826e-09
1.09214236496e-09
-2.30686389888e-10
1.1176537789e-09
-1.2421931248e-08
1.56060835048e-10
1.52128168226e-10
1.56509605125e-10
1.52682978681e-10
-3.68526420643e-10
4.6835523558e-10
7.00955337792e-11
-1.02061557586e-08
1.02304054721e-09
-1.23218843854e-09
-9.11384860198e-09
1.28452012237e-09
7.49554830496e-10
1.02302609853e-08
-1.54334172477e-09
-7.00454914583e-09
1.14669414948e-09
-1.37376681892e-09
-7.05718951559e-09
1.03176544442e-09
-9.58015592822e-11
-9.8154544945e-10
-2.30921967558e-10
-1.02195421413e-10
6.11184800438e-11
1.27754733577e-09
-7.98128735739e-09
7.38555984202e-10
-1.12060848463e-10
7.96655318378e-11
-4.21728075208e-10
-2.88861275866e-11
3.32758693371e-10
3.63725439659e-10
4.04771203142e-09
-3.99705923546e-10
-8.18321915545e-10
-3.45625187398e-10
-4.94501286446e-10
-4.84636694311e-10
-5.60112579704e-10
-5.67024209337e-10
6.58133005792e-10
-1.29348327591e-10
-4.42326333608e-10
3.83244879908e-11
2.08905495045e-10
1.04653553102e-10
1.52746717275e-09
2.86213605082e-09
2.10513067273e-08
7.72480146234e-09
-5.54207431802e-08
1.78279092219e-08
-1.67862821558e-08
-2.12458313428e-08
7.75369537592e-08
1.39715668699e-08
8.32159221249e-08
-2.10951858042e-08
-2.26357481923e-08
1.91441399112e-09
-1.50408319095e-09
-2.11742190863e-09
-2.16250702602e-09
1.31752115465e-08
-1.09277783907e-08
1.40880738142e-08
-7.98496422007e-08
-1.33659555574e-08
7.16885453815e-08
6.93020926173e-08
4.90132415137e-08
3.04890887637e-07
-6.41661869168e-08
-6.29364418134e-08
-5.97062815545e-08
-6.03919396163e-08
1.86550708806e-07
-7.8298360536e-08
1.56187567332e-08
6.91678792724e-08
7.0797591033e-08
3.07290069454e-07
1.76695780745e-07
-5.9045289198e-08
-6.03576275549e-08
-5.70940781038e-08
-5.6354598159e-08
5.7402870005e-08
-1.21435078936e-09
1.97663805459e-10
2.18473336316e-10
-1.98275675459e-10
-8.04974865493e-11
1.07499870272e-09
-6.21913742745e-11
-9.92372283352e-10
2.0358557309e-11
9.90166881147e-10
4.11702311434e-11
-1.17555667786e-10
3.97840510919e-10
2.58354425676e-10
-6.80127004256e-10
1.4536921034e-10
-1.25327740669e-11
6.46008178423e-11
9.01155156252e-10
-1.22940978956e-11
-9.55748751094e-10
-6.97310582131e-10
1.68238598423e-11
1.06455293357e-10
5.76515980554e-10
-2.78244939657e-12
1.88541235524e-10
3.74346980175e-10
-6.38102826226e-10
-1.67466693832e-10
3.1276152348e-09
2.11449538108e-08
7.75439622612e-09
-5.68539221363e-08
5.3059537255e-08
7.33220607627e-08
-1.63072363554e-08
-1.61297718733e-08
-1.91151596852e-08
-1.98613715997e-08
-1.52798259539e-08
1.69907145288e-08
-2.15082223893e-08
-2.11533903344e-08
-2.09481857821e-08
-2.10925693197e-08
2.68285960488e-09
8.04649663967e-09
-1.91512647811e-09
-2.6684843826e-09
-2.58770693946e-09
-2.38027128521e-09
1.38325260241e-08
-1.30497508129e-08
8.10191983351e-08
-2.10533425615e-08
-2.11910524209e-08
-2.10810250073e-08
-2.17158756856e-08
4.26224573009e-09
-3.76779728117e-09
2.17292726609e-08
8.14595838581e-09
5.9263934032e-09
-1.5475596369e-09
-2.03978570984e-09
-2.01977241493e-09
2.02288093474e-09
1.28138750644e-08
-1.15645590148e-08
-1.19614348974e-09
1.86322988492e-09
3.42239875499e-10
1.60741826958e-10
-1.49203857205e-09
2.17220865743e-09
-2.68793103882e-10
3.61636145987e-10
-5.65486091247e-09
2.27827110648e-08
1.20396669989e-08
5.61335871504e-09
-6.81778481092e-08
6.64653532619e-08
6.96930557727e-08
-1.55913282773e-08
-1.53244025971e-08
-1.7769695104e-08
-1.78396970771e-08
1.98151913689e-08
1.91857532997e-08
-2.16490270117e-08
-2.19078646967e-08
-2.1618454065e-08
-2.16168162184e-08
7.15353288808e-09
3.16197669445e-09
1.30958905252e-08
-1.10280082993e-08
7.71124056604e-08
-2.2056232778e-08
-2.17662718217e-08
-2.12543214817e-08
-2.11795553836e-08
2.04015547424e-08
4.77239440524e-09
2.211656062e-08
8.01011391875e-09
7.51908944856e-09
-3.62591323164e-09
1.33268452777e-08
-9.77500474024e-09
4.10488257031e-09
-1.62363015661e-09
9.91295145166e-11
1.74301167203e-09
5.85657668175e-10
-8.18807647709e-10
-6.32445339646e-11
3.40606389756e-10
-1.95623511606e-10
4.36870971695e-11
1.48261716616e-10
-1.23931652684e-10
5.12093870198e-10
-2.26340062343e-10
-3.73747027452e-10
9.16958165924e-11
1.448651462e-10
-1.48996211557e-09
2.20758479202e-09
1.81399213266e-11
3.80407487195e-10
-9.86642523173e-11
1.05557907383e-11
1.33277088834e-09
9.0553957596e-11
-1.33642313491e-09
-9.00649320305e-10
7.19636559607e-11
-1.27300459204e-10
1.20266251494e-10
-1.3488509245e-11
8.65027407073e-10
-1.06133225576e-09
1.25570815358e-11
1.06290760819e-09
-7.91184435591e-11
2.51642588041e-10
4.50182510798e-10
-6.90976041624e-10
-1.10713023564e-10
3.71311807905e-11
1.05129691563e-09
-3.9979473109e-11
-1.06533683676e-09
-1.52825661839e-09
6.14683036278e-12
6.69846933198e-11
1.44143254713e-09
-8.9962165842e-11
9.65869231573e-11
1.9246746403e-10
-7.41592104162e-11
5.24762025256e-10
-6.87337119831e-10
5.48271219635e-11
1.52855010676e-10
-1.00671632781e-09
8.82906527802e-14
7.30059420895e-10
4.00988986641e-11
-8.27090251284e-10
1.99789378887e-11
8.17583093908e-10
-5.05513154629e-11
1.96821133678e-10
1.40872946342e-10
-1.9734238496e-10
-1.31798259841e-09
-5.93021011385e-11
-1.78156293006e-10
-1.31193509627e-09
-1.79784305936e-12
1.29394422166e-09
1.91641857969e-10
1.46990802849e-11
-7.03499202754e-11
1.56145900918e-11
5.46223879817e-11
-9.93467388172e-10
2.49079346399e-10
-1.51476409467e-09
4.31445133885e-11
1.46484824931e-09
-2.300595626e-10
-1.07888560453e-11
2.0049756253e-11
5.96623719584e-11
-7.56526225423e-10
-2.0639142296e-11
-6.08588423608e-11
-1.03797028637e-09
1.67970755063e-11
6.9282843892e-11
1.00647325679e-09
9.02541304693e-11
-1.54703534029e-09
-1.4432283576e-12
-2.5304136999e-11
1.56351667104e-09
-6.98422739757e-11
-1.34443091965e-10
4.3412696211e-12
1.35347278032e-10
-9.33472507627e-10
2.16211131157e-11
-1.20920440424e-09
-2.75408478728e-11
1.21027249084e-09
-1.73237263554e-10
2.63292089116e-11
1.31863501062e-11
-8.05376230427e-11
-1.06718703973e-09
-1.80252608355e-10
-8.49866389828e-10
-2.2880757718e-11
8.51737232054e-10
2.06428735883e-10
1.76992927921e-11
4.51846383513e-11
-1.58375369179e-09
-5.23120126251e-11
4.33589139224e-11
-1.17980503298e-09
4.05312119511e-11
-4.73706944003e-11
1.1298286742e-09
1.34689948778e-10
3.27685481195e-10
-1.30746722843e-10
-8.55215127668e-12
-3.17483363807e-10
-1.32885661671e-10
-2.6752980986e-10
2.61451730909e-10
1.35077022846e-10
1.53653201935e-12
1.50083976781e-10
-3.62526324567e-10
1.27365010362e-11
3.42328469213e-10
-1.43092350176e-10
8.52915948499e-11
4.35553598813e-10
-3.55712461207e-10
-1.34670854342e-10
-7.36085999433e-11
1.24674602068e-10
2.21951086054e-10
-1.31111802465e-11
-1.02720773667e-10
4.07291678825e-10
-9.63180987604e-11
8.33305343901e-11
-3.04778336128e-10
-2.77899596106e-10
-8.81614433331e-09
-8.42286777397e-11
-9.02389099976e-11
-9.89171436397e-11
8.72437061815e-10
2.28400725652e-09
1.74026240041e-09
1.76519500831e-09
2.25174223388e-09
-3.2829417859e-10
-2.45847802106e-10
-3.29858729058e-10
1.10018875159e-09
2.26059901005e-10
-1.47224196032e-09
-1.77282404957e-10
5.62013239531e-10
-9.52417715445e-11
1.146690451e-09
4.36739195431e-10
-1.43237021579e-09
1.14096240241e-10
-2.3122987078e-10
2.31703571949e-10
-6.78948719379e-12
1.39533961808e-09
-1.09724423175e-09
-1.34554512944e-08
-1.41598745872e-08
-9.35948591396e-11
-4.60172167926e-11
3.61011303456e-09
-3.97626769947e-11
-3.70863871959e-11
-2.9926154502e-12
-1.13757406206e-10
-8.124801356e-11
-1.42653231806e-10
3.9305648709e-09
3.6487453096e-09
3.93719918687e-09
1.69906058458e-11
-1.95500284771e-10
-1.31801094091e-08
3.9335890201e-11
-1.83973807627e-12
2.48208137808e-11
-2.16209942241e-10
-1.51946934901e-10
-1.91965810561e-10
-1.9879457922e-09
-1.06299540585e-10
-5.96439634047e-11
-3.60260155175e-12
1.19335318632e-10
2.0341397562e-09
4.32654163316e-10
6.35654690756e-11
1.33298491294e-10
-4.96192892593e-10
-1.29452173376e-10
2.17138796971e-09
-7.76823990221e-11
-3.09727516255e-11
9.80334032504e-11
-2.12824118841e-09
-3.24241267123e-11
1.19614568152e-10
2.17161817675e-09
-1.46300604346e-10
-2.28217995844e-09
3.93209061709e-11
7.54242524542e-11
1.39582043095e-10
3.58321534169e-10
-1.35897979099e-10
-5.74811619838e-11
8.47913602941e-11
2.20741058887e-09
-4.7842565766e-11
-5.37649063466e-10
1.07303711997e-10
-4.93917994698e-11
5.63591209114e-10
-8.78213249772e-11
-1.16632195537e-10
-5.60551743829e-11
-2.20079883844e-12
1.33043459205e-10
-1.94783618878e-09
-1.83127276774e-09
-1.58349735591e-10
-6.85253193819e-11
1.94253966539e-10
-5.61977051812e-12
1.86907529625e-09
-2.65383304442e-10
-1.68221069568e-09
-8.70680988441e-11
8.24133935982e-12
1.71736430941e-09
3.0480692157e-10
8.56376022823e-11
-6.32276992431e-11
-4.82948432604e-10
-7.3262905357e-11
-1.82914666627e-10
-6.94889148932e-11
2.26528853447e-10
-1.79405272672e-09
-1.69916963141e-11
1.04569899783e-09
1.76235960239e-10
-1.20774598987e-09
-1.62926736914e-10
2.07129115971e-10
1.8364978117e-10
8.49580101267e-10
-1.688339349e-10
2.52190587455e-10
3.05481535111e-10
-2.6939673375e-10
-1.1366787382e-09
-1.30300010342e-10
-2.14336063083e-09
-3.58509743001e-10
-1.92716962252e-10
2.63983550245e-10
-1.30450252638e-09
-1.71486472833e-10
-2.05184281679e-10
-1.54436006916e-09
1.78940055226e-10
1.99085656789e-11
1.55157445913e-09
-1.70200416178e-08
-7.11085152001e-10
1.85312407014e-08
9.99102042044e-11
1.06561441931e-10
1.16015529308e-10
7.99870992505e-11
-6.43903558129e-10
-1.57256885813e-08
6.88357674712e-11
7.79991800504e-11
8.60943573421e-10
5.57506261437e-11
3.75126349301e-11
-4.49970663563e-10
-1.56754780541e-08
9.9001136057e-11
1.03582852406e-10
1.08889346248e-10
9.95117342172e-11
-1.57693732518e-10
1.61757742504e-09
-1.59608691593e-09
2.71856104401e-11
1.01623704675e-10
-1.23872286471e-09
2.74663941717e-10
1.82212336587e-10
-1.01509995906e-10
1.09128780296e-09
1.17759309246e-10
-4.61047929976e-10
4.33859809878e-10
-6.61207920894e-10
1.80471483921e-10
1.73505418992e-09
2.03280422529e-10
8.9908055526e-11
-2.10269120812e-10
-1.8031468755e-09
-1.47386518436e-11
-2.15109307678e-09
-2.90137946843e-11
2.19972405058e-09
1.84638449264e-11
-1.57442178525e-10
1.55446314877e-08
4.15734910793e-10
1.29106249611e-10
1.38567362132e-10
1.16798022697e-10
1.47413983184e-10
1.44439887763e-08
-1.89699718297e-10
-1.33968656795e-08
1.01561222656e-10
8.77082197119e-11
8.45337760878e-11
1.05408557289e-10
1.56362724156e-08
1.11819704884e-10
9.16887067138e-11
7.54798836242e-11
7.78909866534e-11
7.62729024454e-11
2.34306073144e-09
-4.68303330667e-11
6.55912710542e-11
-2.30153121257e-09
1.11350562631e-11
5.78938574806e-11
-1.88071299769e-09
1.93354039635e-09
-4.39316000206e-11
5.32900629897e-11
-1.00299399247e-10
1.78888971341e-10
1.1690914255e-10
8.33609543068e-11
-1.44970292599e-11
4.10928800792e-11
7.85670031797e-10
4.61485786166e-11
1.68473527198e-09
-2.01652140902e-10
-1.68765292061e-08
1.82212943453e-08
1.17361563295e-10
1.15207859378e-10
1.17083283284e-10
1.20860125768e-10
1.89897612824e-10
8.38190157583e-11
1.14927506846e-10
1.43005553283e-10
1.2157803848e-10
1.35643882398e-10
2.24549952088e-09
-2.18841809372e-10
9.27749839669e-11
2.41121519718e-10
-2.33282921066e-09
1.0813357883e-10
1.00793261355e-10
1.09726262297e-10
1.00158626203e-10
1.73646375406e-09
-1.70644359137e-09
1.44564760918e-11
-2.06578419415e-10
-7.14553366408e-11
1.12001174563e-10
2.84142814329e-11
2.36397839375e-09
1.91362717982e-10
3.93326649662e-11
-1.57915882967e-09
-3.04385320833e-10
6.50241071376e-11
5.97941735541e-11
4.34469762711e-10
4.5228206003e-11
5.60880687142e-11
1.44974617313e-08
-1.34655187759e-08
6.19421351916e-11
5.34960303292e-11
6.03517834905e-11
5.3467774092e-11
7.09402966303e-11
7.01977602541e-11
7.00181681591e-11
6.95279487666e-11
-1.77675063944e-09
1.67514463386e-09
1.68394553936e-10
9.84930119865e-11
1.37319672537e-09
9.66481969166e-12
1.22858499425e-10
2.47319314341e-11
-1.55849731691e-09
-1.2706222957e-09
8.02255609661e-11
1.43073319445e-10
1.08833316282e-10
1.31898074131e-10
3.75540800924e-10
4.40427410697e-10
4.42139301067e-10
3.78928607153e-10
5.14034800305e-09
5.16995995068e-09
5.00268144883e-09
4.97592633159e-09
5.63589006522e-09
-5.04536796011e-10
5.78743907962e-10
-5.40006045128e-09
5.32806471401e-10
-1.28851968078e-10
1.62495450803e-09
3.49776068782e-11
7.2006506646e-11
-1.03350288787e-10
-1.82522175227e-09
9.02312566772e-11
1.73757839289e-09
6.86861096748e-11
3.87132500417e-09
-1.88639661535e-10
-2.14581488791e-10
-1.84001232528e-10
-3.32201583618e-09
9.26055423356e-10
6.54249230564e-09
-8.33758211605e-10
-6.32871898877e-09
1.04819604633e-09
2.0087671771e-09
-2.15437260627e-08
-1.66904793617e-09
3.86920689739e-10
3.93641323685e-10
3.69128536291e-10
4.28942496325e-10
6.17422350443e-10
-2.18617498856e-08
3.09820524441e-10
2.53346482085e-10
2.03465006617e-10
3.1658275837e-10
6.05776113956e-09
6.03255050605e-09
5.99010090728e-09
6.02063766548e-09
6.98993804031e-10
6.19226404695e-10
7.21007064287e-10
-1.06132516341e-09
2.39045490379e-10
2.59403044517e-10
-2.50964638135e-09
-2.76416400764e-10
1.57147832731e-10
2.69854723495e-09
-8.72419436321e-11
2.44217722279e-10
2.92343509396e-12
1.01093662406e-09
6.64403962909e-09
1.01809114569e-09
-6.41881816858e-09
1.08098460889e-09
6.83961231145e-10
5.89641502311e-09
6.33331627223e-10
6.15821975547e-11
-1.84684282982e-09
-3.95107667979e-11
1.98987716383e-08
1.93444362189e-10
1.68430792466e-10
1.81453476484e-10
1.69514318783e-10
1.43610638836e-09
-1.09004550717e-09
2.62856313094e-10
2.86765663375e-10
2.71290848585e-10
2.71949722251e-10
-3.08004858483e-10
3.70469014702e-11
2.65765212824e-10
2.27267766586e-09
2.34346047928e-10
1.86561570113e-10
2.01971671907e-10
2.31649345434e-10
4.44091305575e-10
4.95720244809e-10
4.32144453125e-10
1.7738520885e-09
8.12602661653e-12
-1.8372460983e-10
-3.09962394562e-10
2.18778105348e-10
-5.02917281465e-11
-2.37778585216e-09
-1.22190694334e-10
-3.07507746607e-10
-2.7506047322e-09
3.05347798415e-09
1.17125956929e-10
-2.94705961145e-10
4.91312574441e-09
-5.01738816188e-10
2.34561938003e-10
-4.0393796356e-09
1.83663752104e-09
2.52813212898e-08
1.29458796552e-09
1.4390278751e-09
1.43536612205e-09
1.28548321071e-09
3.07533871388e-10
-5.18561791106e-09
-5.19584293599e-10
5.59001415604e-09
-3.05853904999e-10
5.57070557608e-10
7.52920880863e-09
-6.45449980921e-10
-1.0220640312e-09
-6.63682196063e-09
1.75841191231e-09
-2.84919229745e-09
6.30080480889e-09
2.63435035399e-09
-1.5203484034e-09
-6.33160704601e-09
1.32760086594e-09
-1.11958920055e-09
-8.28570500439e-10
5.75901628094e-09
-1.63369234004e-09
6.81304285417e-09
-1.53742801393e-09
1.49747214474e-09
-6.09420617834e-09
1.50378402814e-10
-3.95249015015e-09
-4.00324303734e-10
4.6392080985e-09
-4.64778473655e-10
-3.43652560349e-09
3.94843470237e-09
2.76435707002e-08
1.48273287114e-09
1.8569908669e-09
1.82265783211e-09
1.49599655847e-09
2.61976414905e-08
-2.30826569044e-09
-2.44361480002e-08
1.0361925209e-09
8.82372945896e-10
1.0222899833e-09
8.90392238934e-10
-2.95603244203e-09
2.70709105743e-08
1.42249751724e-09
1.68107981289e-09
1.74282588142e-09
1.39711469612e-09
1.5790748286e-09
6.62226365267e-09
-1.39974712132e-09
-6.32628289677e-09
-1.79839933244e-09
-7.62658871953e-10
-4.13199774208e-09
4.5293308876e-09
7.35732506434e-10
-3.5354025406e-10
-2.42681119259e-10
-2.2021884057e-09
3.00600298429e-09
3.98685249889e-10
1.01478214478e-09
-3.57369567941e-11
-2.39770718238e-10
4.18289413546e-10
9.42801825653e-11
-2.48028335026e-11
4.21271622201e-09
-1.23954434787e-08
1.75762637899e-09
2.3466945048e-09
2.30349985936e-09
1.79649223301e-09
1.86735354526e-08
-7.83369571822e-10
-1.1471806293e-09
-9.16698149083e-10
-1.00082497886e-09
-2.67886466634e-09
-4.24370714765e-09
-4.21701998916e-09
-2.73396652048e-09
-3.70983656266e-11
6.61735214128e-10
1.76724934073e-09
7.83245011883e-11
-1.39159125606e-09
-9.66541935778e-10
-1.22602518033e-09
-3.4480399923e-09
5.17870963577e-09
-4.88126383128e-09
1.18697425409e-09
3.11637347655e-09
5.63478135045e-10
-2.16750287458e-09
-5.94614061162e-10
1.06132971208e-09
3.44098254697e-09
-3.53781017849e-11
-2.25632165546e-10
1.04155245747e-10
3.22147185998e-11
3.35598547179e-10
-1.14271323895e-11
-2.31603996176e-09
2.31072340211e-09
-3.39804690729e-10
-2.60027383314e-12
-1.50931862234e-09
6.42304860836e-09
-1.09308052721e-09
-1.27699691615e-09
-5.66909122234e-09
2.38632995367e-09
2.58437461491e-08
1.23414575801e-09
1.41355042028e-09
1.26249429514e-09
1.40863564319e-09
2.54851553583e-08
-2.37798093694e-08
9.51293151864e-10
8.4339834403e-10
9.72005057845e-10
8.3383147681e-10
-5.09587299232e-09
-4.44427604024e-10
5.4757410782e-09
3.70934968098e-10
2.64790923487e-08
1.26147497699e-09
1.49983593937e-09
1.45238638861e-09
1.29245662667e-09
7.13858845241e-09
1.01401416241e-09
-8.6038246217e-10
-6.59451646997e-09
-4.33673485776e-09
4.68469294604e-09
-2.53482532775e-10
-8.01935084957e-10
-1.74470179361e-09
2.49429610484e-09
-3.969464263e-10
6.47013801004e-10
-3.04907108879e-09
5.62512119347e-09
2.71931125239e-09
1.74858054673e-09
-5.3634990624e-09
5.78239407023e-10
1.656219311e-09
1.06615186974e-11
-1.28483968681e-09
-8.85919463421e-10
-3.34285695654e-09
5.04360615412e-09
-4.67027331537e-09
-1.38013225816e-09
3.03437366207e-09
-1.31976500183e-09
9.74709163587e-10
3.46375713057e-09
4.24291336439e-10
7.28919998287e-11
2.58546627179e-10
1.35592915163e-09
3.87329867418e-09
-2.66845637292e-09
-1.82997562031e-09
-2.36397512615e-09
-3.41293868844e-10
-4.18948317708e-10
4.65458498983e-09
1.05068653955e-09
-9.51817369856e-10
6.73706311741e-09
1.29225599284e-09
2.82358024078e-08
1.64384046227e-09
1.98849651963e-09
1.60995787683e-09
2.06143312336e-09
1.17755763915e-09
1.1224749878e-09
1.21690881909e-09
1.32971893424e-09
6.47929378659e-09
1.9125709599e-09
-6.2090166142e-09
-1.88341882523e-09
1.36650396414e-09
6.885811149e-09
-6.91410742732e-09
-1.24861619086e-09
2.3769486837e-09
-1.88029546534e-09
1.83716511109e-09
8.08587124671e-10
-1.06307680964e-09
2.003813695e-10
-5.71322756758e-11
1.10768281562e-10
2.74284917067e-10
-1.94174476746e-10
5.92540553084e-10
-5.11021367234e-10
-1.06118983001e-10
1.14334903497e-10
5.70929197018e-10
-2.37965239509e-09
1.37583695632e-09
-6.04694074822e-10
2.8343019381e-09
-2.60317209584e-10
5.16567193263e-10
-8.51907380938e-11
1.11132702091e-10
4.36560432906e-09
-1.28169215176e-08
1.8371190068e-08
-2.74419815306e-09
-4.20079999434e-09
-2.72983472739e-09
-4.12578585331e-09
-9.55486462563e-09
4.43724981371e-09
1.09333179108e-09
9.9202705848e-09
-1.14915381438e-09
-1.09385287934e-09
-1.29578094408e-09
-1.3802763825e-09
-7.7138826518e-11
-1.63727158771e-10
1.70228828613e-10
6.89094157273e-10
-1.3666422555e-10
-2.14643524846e-09
5.55802183616e-10
1.06560931728e-09
3.42985260224e-09
4.20295389919e-09
-1.35573023107e-08
1.7409959188e-08
-2.61382244249e-09
-3.62740221276e-09
-3.78814523459e-09
-2.6308053825e-09
6.81040049864e-11
-2.94447635765e-09
-1.29919677537e-11
-2.71845131421e-11
-7.88956768312e-11
2.92872192355e-09
-1.62251881093e-08
-2.72137115598e-10
1.74304092808e-08
2.67588607674e-10
2.67724556036e-10
2.65200172914e-10
2.73095776943e-10
-8.19163479448e-10
-1.49266403312e-08
2.82197925954e-10
2.87433131899e-10
2.97383902352e-10
2.71862197948e-10
-7.43462101264e-11
3.3964688028e-09
-1.11243530936e-10
-3.28653089583e-09
4.11179971638e-11
-3.08958341426e-09
-2.75656769505e-11
-1.3382846031e-10
-1.08847183666e-10
3.11496427165e-09
-5.45960263532e-10
-1.51207688983e-08
2.6430949387e-10
2.52218130465e-10
2.63517879476e-10
2.51790045117e-10
1.06066831504e-10
-9.71614241676e-12
3.18825381136e-09
-3.0934589949e-09
-8.96367737242e-11
-9.77660907704e-11
1.61646641272e-11
1.47591038703e-09
-1.06253102688e-10
-1.47600656408e-09