/*--------------------------------*- C++ -*----------------------------------*\
| =========                 |                                                 |
| \\      /  F ield         | OpenFOAM: The Open Source CFD Toolbox           |
|  \\    /   O peration     | Version:  2406                                  |
|   \\  /    A nd           | Website:  www.openfoam.com                      |
|    \\/     M anipulation  |                                                 |
\*---------------------------------------------------------------------------*/
FoamFile
{
    version     2.0;
    format      ascii;
    arch        "LSB;label=32;scalar=64";
    class       pointVectorField;
    location    "0.01";
    object      pointDisplacement;
}
// * * * * * * * * * * * * * * * * * * * * * * * * * * * * * * * * * * * * * //

dimensions      [0 1 0 0 0 0 0];

internalField   nonuniform List<vector> 
45891
(
(0.00159137381998 1.2651603671e-05 -1.04083408559e-17)
(0.00080040618184 -0.00025975918564 1.30104260698e-18)
(0.000267422149638 -0.000197578194274 0)
(0.0010658922103 -0.000257477315304 1.30104260698e-18)
(0.00020069166939 -0.000198191047924 0)
(0.000533279962695 -0.000128894577956 1.30104260698e-18)
(0.000400107011136 -0.000129983368834 0)
(0.000200424771043 -0.000164974850763 0)
(0.000167244295013 -0.000198514104954 0)
(0.00010954702603 -0.000173842744802 0)
(0.000126096192496 -0.000190350879157 0)
(0.000125584847405 -0.000173949469794 0)
(0.000109679925325 -0.000190481997446 0)
(9.2908412313e-05 -0.000173975638993 0)
(9.32916030836e-05 -0.000190251875833 0)
(0.000167122972434 -0.000181924279836 0)
(0.000117932935889 -0.000182095124094 0)
(8.48500040097e-05 -0.00018202709746 0)
(0.00010129416244 -0.000182228019561 0)
(0.000133672748402 -0.000182250554463 0)
(0.000133795277927 -0.000190471491599 0)
(0.000133561183212 -0.000174002373631 0)
(0.00011786649262 -0.00017377629643 0)
(0.000109613469298 -0.000182161572465 0)
(0.000101227719171 -0.000173909191898 0)
(0.000125917073034 -0.000182144770782 0)
(0.000117999391915 -0.000190415549074 0)
(0.00010152963047 -0.00019030907919 0)
(9.29748555814e-05 -0.000182294466657 0)
(8.49717216031e-05 -0.000190286379137 0)
(0.000113706759325 -0.000173809520616 0)
(0.000109580247664 -0.000178002158633 0)
(0.000105387452467 -0.000173875967712 0)
(0.000125984081759 -0.000186254394763 0)
(0.000122158965478 -0.000190382326164 0)
(0.000122026066184 -0.00017374307352 0)
(0.0001258348454 -0.000178009709651 0)
(0.000109646690933 -0.000186320986297 0)
(0.00011383965862 -0.00019044877326 0)
(0.000105520351761 -0.000190515220356 0)
(9.70679858764e-05 -0.000173942416083 0)
(9.29416339472e-05 -0.000178135052825 0)
(8.87486790179e-05 -0.000174008863179 0)
(9.74112493244e-05 -0.00019027967375 0)
(9.31865200266e-05 -0.000186195270784 0)
(8.91318059988e-05 -0.000190277113433 0)
(0.000117899714254 -0.000177935710262 0)
(0.000113773202594 -0.000182128348279 0)
(0.000122092509452 -0.000182061901184 0)
(0.000117966157523 -0.000186254537925 0)
(8.89775597734e-05 -0.000182085183164 0)
(8.49319193315e-05 -0.00018610305658 0)
(0.000105453895735 -0.000182194795375 0)
(0.000101260940806 -0.000178068605729 0)
(0.000101327384074 -0.000186387433393 0)
(9.71344291448e-05 -0.000182261243747 0)
(0.000113739980959 -0.000177968934448 0)
(0.000105420674101 -0.000178035381544 0)
(0.000122125731086 -0.000186221315015 0)
(0.000122059287818 -0.000177902487352 0)
(0.000113806424228 -0.000186287762111 0)
(0.000105487117369 -0.000186354209207 0)
(8.87819006521e-05 -0.000178168277011 0)
(9.71012075106e-05 -0.000178101829915 0)
(8.90858696171e-05 -0.00018612578825 0)
(9.7167650779e-05 -0.000186420657578 0)
(0.000142063911043 -0.000190440592458 0)
(0.000141910277232 -0.00017390533766 0)
(0.000150388979489 -0.00018207550744 0)
(0.000111626892678 -0.000173826132709 0)
(0.000109563636847 -0.000175922451718 0)
(0.000107467159382 -0.000173859356895 0)
(0.000129824437854 -0.000190434518058 0)
(0.000129475265363 -0.000174017436636 0)
(0.000109696536142 -0.000192561704362 0)
(0.000109663314508 -0.00018840229053 0)
(0.000111759791972 -0.000190465385353 0)
(0.000107600058677 -0.000190498609539 0)
(9.49881192288e-05 -0.000173959028176 0)
(9.29250231301e-05 -0.000176055345909 0)
(9.08285456654e-05 -0.000173992251086 0)
(0.000133857059901 -0.000194606716031 0)
(0.000117916325072 -0.000180015417178 0)
(0.000115853069241 -0.000182111736186 0)
(0.000120012642804 -0.000182078513276 0)
(0.000117949546706 -0.000184174831009 0)
(8.69013863498e-05 -0.000182084194149 0)
(0.000103374029087 -0.000182211407468 0)
(0.000101277551623 -0.000180148312645 0)
(0.000101310773257 -0.000184307726477 0)
(9.92142957923e-05 -0.000182244631654 0)
(0.000133727604759 -0.000186358678087 0)
(0.000133619892009 -0.000178132830351 0)
(0.000129651701023 -0.000182247527733 0)
(0.000115786625973 -0.000173792908523 0)
(0.000117883103437 -0.000175856003346 0)
(0.000109596858481 -0.000180081865549 0)
(0.000109630080116 -0.000184241279381 0)
(0.000111693335946 -0.000182144960372 0)
(0.000107533602651 -0.000182178184558 0)
(0.000103307585819 -0.000173892579805 0)
(9.91478525239e-05 -0.000173925803991 0)
(0.000101244329989 -0.000175988898813 0)
(0.000120079098831 -0.000190398938257 0)
(0.000115919525267 -0.000190432161167 0)
(0.000117982781098 -0.000188335842158 0)
(0.000118016002732 -0.00019249525599 0)
(0.000103549647725 -0.000190379205748 0)
(9.94568624436e-05 -0.000190314452652 0)
(0.000101439094475 -0.000188333794959 0)
(9.29582447643e-05 -0.000180214759741 0)
(9.30982330344e-05 -0.000184221566009 0)
(9.09993723519e-05 -0.00018216008764 0)
(9.50545624972e-05 -0.00018227785584 0)
(0.000113723370142 -0.000175889227532 0)
(0.000111660114312 -0.000177985546541 0)
(0.000107500381017 -0.000178018770726 0)
(0.000105404063284 -0.000175955674628 0)
(0.000122142354661 -0.000188302619248 0)
(0.000122175576295 -0.00019246203308 0)
(0.00011172655758 -0.000186304374204 0)
(0.000107566824285 -0.00018633759839 0)
(0.000113823047803 -0.000188369066344 0)
(0.000113856269437 -0.000192528480176 0)
(0.000105652425153 -0.000192431068319 0)
(0.000105503740944 -0.00018843551344 0)
(9.70845966935e-05 -0.000176022122999 0)
(9.08617672996e-05 -0.000178151664918 0)
(9.5021340863e-05 -0.000178118442008 0)
(8.8765289835e-05 -0.000176088570095 0)
(9.73087268151e-05 -0.000188323654285 0)
(9.51972406906e-05 -0.000186281445785 0)
(0.000115819847607 -0.000177952322355 0)
(0.00011997942117 -0.000177919099445 0)
(0.000113756591776 -0.000180048641364 0)
(0.000113789813411 -0.000184208055195 0)
(0.000122109120269 -0.000184141608099 0)
(0.000122075898635 -0.000179982194268 0)
(0.000120045864439 -0.000186237927108 0)
(0.000115886290875 -0.000186271150018 0)
(8.88913492934e-05 -0.000180111461804 0)
(0.000105437284918 -0.000180115088459 0)
(0.000105470506552 -0.000184274502291 0)
(0.000103340807453 -0.000178051993636 0)
(9.91810741581e-05 -0.000178085217822 0)
(0.000103407250722 -0.0001863708213 0)
(9.92475174266e-05 -0.000186404045486 0)
(9.71178183277e-05 -0.000180181536831 0)
(9.71510399619e-05 -0.000184340950663 0)
(0.000129904614491 -0.000194572790408 0)
(0.000141988637105 -0.000182176147574 0)
(0.000150452880323 -0.000190356017353 0)
(0.000150324388696 -0.000173788613361 0)
(0.0001074837702 -0.000175939063811 0)
(0.00010335741827 -0.000180131700552 0)
(0.000107516991834 -0.000180098477642 0)
(0.000103324196636 -0.000175972286721 0)
(0.000120029253622 -0.000184158220192 0)
(0.000120062488014 -0.000188319231341 0)
(0.000129726555997 -0.000186339517435 0)
(0.000120095709648 -0.000192478645173 0)
(0.000119996031987 -0.000179998806361 0)
(0.000129574948664 -0.000178137981575 0)
(0.000111743181155 -0.000188385678437 0)
(0.000115869680058 -0.000184191443102 0)
(0.000111709946763 -0.000184224667288 0)
(0.00011590291445 -0.000188352454251 0)
(0.000107692965131 -0.000192470679998 0)
(0.000111776402789 -0.000192545092269 0)
(0.000115936136085 -0.000192511868083 0)
(0.00010758344786 -0.000188418902623 0)
(0.000103390639905 -0.000184291114384 0)
(0.000107550213468 -0.000184257891474 0)
(0.000103486439128 -0.000188365365193 0)
(9.08451564825e-05 -0.000176071958002 0)
(9.09380805346e-05 -0.000180146231776 0)
(9.50047300459e-05 -0.000176038735092 0)
(9.91976849752e-05 -0.000180164924738 0)
(9.9164463341e-05 -0.000176005510906 0)
(9.50379516801e-05 -0.000180198148924 0)
(9.92309066094e-05 -0.00018432433857 0)
(9.93698022734e-05 -0.000188334348402 0)
(9.51357763837e-05 -0.000184265993879 0)
(0.000111643503495 -0.000175905839625 0)
(0.000115836458424 -0.000180032029271 0)
(0.00011580323679 -0.000175872615439 0)
(0.000111676725129 -0.000180065253456 0)
(0.00010129416244 -0.000182228019561 0)
(0.000133648545213 -0.000182300267767 0)
(0.000117932935889 -0.000182095124094 0)
(0.000101227719171 -0.000173909191898 0)
(0.000133742437852 -0.000190535810399 0)
(0.000133511186155 -0.000174082643914 0)
(0.000101360618466 -0.000190548444541 0)
(0.00011786649262 -0.00017377629643 0)
(9.29748555814e-05 -0.000182294466657 0)
(0.000126252242747 -0.000182028676998 0)
(9.2908412313e-05 -0.000173975638993 0)
(9.30045472824e-05 -0.000190651925915 0)
(0.000150341123249 -0.000182123812243 0)
(0.000126318698773 -0.000190349101978 0)
(0.000126185799479 -0.000173709849334 0)
(0.000105420674101 -0.000178035381544 0)
(0.000122125731086 -0.000186221315015 0)
(0.000101260940806 -0.000178068605729 0)
(0.000101327384074 -0.000186387433393 0)
(9.71344291448e-05 -0.000182261243747 0)
(0.000101434572222 -0.000182287600018 0)
(8.88151222863e-05 -0.000182327690843 0)
(0.000117932935889 -0.000182095124094 0)
(0.000117901298814 -0.000177934100187 0)
(0.000122055917616 -0.000182100531503 0)
(0.000126318698773 -0.000190349101978 0)
(9.70679858764e-05 -0.000173942416083 0)
(0.000101227719171 -0.000173909191898 0)
(9.72008851711e-05 -0.000190581668727 0)
(0.000101360618466 -0.000190548444541 0)
(0.000122026066184 -0.00017374307352 0)
(0.00011786649262 -0.00017377629643 0)
(9.29416339472e-05 -0.000178135052825 0)
(9.30080772156e-05 -0.000186453880488 0)
(8.87486790179e-05 -0.000174008863179 0)
(0.000126285464381 -0.000186188090829 0)
(0.000126219021113 -0.000177869263166 0)
(0.000125873765829 -0.000182202623766 0)
(0.000122059287818 -0.000177902487352 0)
(0.000117899714254 -0.000177935710262 0)
(0.000122092509452 -0.000182061901184 0)
(0.0001013938401 -0.000194707858373 0)
(9.71012075106e-05 -0.000178101829915 0)
(8.87819006521e-05 -0.000178168277011 0)
(0.000101400904061 -0.000178072280087 0)
(9.7167650779e-05 -0.000186420657578 0)
(0.000101327384074 -0.000186387433393 0)
(0.000105453895735 -0.000182194795375 0)
(0.000126285464381 -0.000186188090829 0)
(0.000122158965478 -0.000190382326164 0)
(0.000130011167271 -0.000194653407732 0)
(9.72341068054e-05 -0.000194741082559 0)
(0.000122059287818 -0.000177902487352 0)
(9.71492785739e-05 -0.000178240421423 0)
(8.86234309419e-05 -0.00017840755816 0)
(9.71123881813e-05 -0.000186561671841 0)
(0.000133774630669 -0.000194706414382 0)
(0.000101277551623 -0.000180148312645 0)
(0.000101310773257 -0.000184307726477 0)
(9.92142957923e-05 -0.000182244631654 0)
(0.00010129416244 -0.000182228019561 0)
(0.000133701421 -0.000186400420115 0)
(0.000133570776795 -0.000178203509077 0)
(0.000129887829922 -0.000182191329502 0)
(0.000141910904398 -0.000182243860032 0)
(0.000117932935889 -0.000182095124094 0)
(0.000117916325072 -0.000180015417178 0)
(0.000120012642804 -0.000182078513276 0)
(0.000101244329989 -0.000175988898813 0)
(9.91478525239e-05 -0.000173925803991 0)
(0.000101227719171 -0.000173909191898 0)
(0.000133680429279 -0.000190592215334 0)
(0.00013005896892 -0.000190418268065 0)
(0.000150392935505 -0.000190410808385 0)
(0.000150287208965 -0.000173833638052 0)
(0.000129491895825 -0.00017407960315 0)
(0.000101377229283 -0.000192628151457 0)
(0.000101344007649 -0.000188468737626 0)
(9.92807518187e-05 -0.000190565056634 0)
(0.000101360618466 -0.000190548444541 0)
(0.000117883103437 -0.000175856003346 0)
(0.000119946199536 -0.000173759685613 0)
(0.00011786649262 -0.00017377629643 0)
(9.50545624972e-05 -0.00018227785584 0)
(9.08949889338e-05 -0.00018231107875 0)
(9.29582447643e-05 -0.000180214759741 0)
(9.29914663985e-05 -0.000184374173573 0)
(9.29748555814e-05 -0.000182294466657 0)
(0.0001241723761 -0.000182045289091 0)
(0.000126268853564 -0.000184108383914 0)
(0.00012623563193 -0.000179948970082 0)
(9.28414816328e-05 -0.000174215786431 0)
(9.49881192288e-05 -0.000173959028176 0)
(9.29250231301e-05 -0.000176055345909 0)
(9.08285456654e-05 -0.000173992251086 0)
(9.30413116078e-05 -0.000190614891637 0)
(9.51210185236e-05 -0.00019059828082 0)
(9.30579224249e-05 -0.000192694598553 0)
(9.30247007906e-05 -0.000188535184721 0)
(0.000126335309591 -0.000192428808894 0)
(0.000126302087956 -0.000188269395062 0)
(0.000125486584824 -0.000174106801693 0)
(0.000103340807453 -0.000178051993636 0)
(0.000105437284918 -0.000180115088459 0)
(0.000122175576295 -0.00019246203308 0)
(0.000122109120269 -0.000184141608099 0)
(0.000122142354661 -0.000188302619248 0)
(9.91810741581e-05 -0.000178085217822 0)
(0.000101260940806 -0.000178068605729 0)
(9.92475174266e-05 -0.000186404045486 0)
(0.000101327384074 -0.000186387433393 0)
(9.71178183277e-05 -0.000180181536831 0)
(9.71510399619e-05 -0.000184340950663 0)
(0.000101396765557 -0.000184374131248 0)
(0.000103374029087 -0.000182211407468 0)
(8.87985114692e-05 -0.000180247983927 0)
(0.000117916325072 -0.000180015417178 0)
(0.000120012642804 -0.000182078513276 0)
(0.000119942816577 -0.000177956132447 0)
(0.000117899714254 -0.000177935710262 0)
(0.000122075898635 -0.000179982194268 0)
(0.000122092509452 -0.000182061901184 0)
(9.70845966935e-05 -0.000176022122999 0)
(0.000101244329989 -0.000175988898813 0)
(9.72174959883e-05 -0.000192661375643 0)
(9.7184274354e-05 -0.000188501961811 0)
(0.000101377229283 -0.000192628151457 0)
(0.000101344007649 -0.000188468737626 0)
(0.000122042677001 -0.000175822780436 0)
(0.000117883103437 -0.000175856003346 0)
(9.5021340863e-05 -0.000178118442008 0)
(9.08617672996e-05 -0.000178151664918 0)
(9.50877841315e-05 -0.000186437269671 0)
(8.8765289835e-05 -0.000176088570095 0)
(0.000124139154465 -0.000177885875259 0)
(0.000133759187209 -0.000194752862882 0)
(0.000129810367675 -0.000190512903971 0)
(9.72273271853e-05 -0.000173992260818 0)
(9.72008851711e-05 -0.000190581668727 0)
(0.000121746149854 -0.000173936999523 0)
(0.000125791563196 -0.00017811069275 0)
(9.28295696183e-05 -0.000178364378816 0)
(9.70847500051e-05 -0.000182461317919 0)
(8.85734175679e-05 -0.000174305785531 0)
(0.000130065016769 -0.000194595470546 0)
(9.92973626358e-05 -0.00019264476355 0)
(9.51393736316e-05 -0.000192676376385 0)
(0.000101377229283 -0.000192628151457 0)
(9.3074533242e-05 -0.000194774305469 0)
(0.000141970428686 -0.000190516417806 0)
(0.000141850741182 -0.000173971307361 0)
(0.000130009569473 -0.000186273360218 0)
(0.00012961852939 -0.00017817437413 0)
(0.000119996031987 -0.000179998806361 0)
(9.91976849752e-05 -0.000180164924738 0)
(9.92309066094e-05 -0.00018432433857 0)
(0.000117916325072 -0.000180015417178 0)
(0.000120012642804 -0.000182078513276 0)
(0.000101310773257 -0.000184307726477 0)
(0.000119962810353 -0.000175839392529 0)
(0.000124155765282 -0.000179965582175 0)
(0.000117883103437 -0.000175856003346 0)
(9.9164463341e-05 -0.000176005510906 0)
(9.50379516801e-05 -0.000180198148924 0)
(9.50047300459e-05 -0.000176038735092 0)
(0.000101244329989 -0.000175988898813 0)
(8.88151222863e-05 -0.000182327690843 0)
(9.08783781167e-05 -0.000180231371834 0)
(9.08451564825e-05 -0.000176071958002 0)
(9.30080772156e-05 -0.000186453880488 0)
(9.92641410016e-05 -0.000188485349719 0)
(9.50711733143e-05 -0.000184357562756 0)
(9.51044077065e-05 -0.000188518573904 0)
(0.000101344007649 -0.000188468737626 0)
(0.000109624932189 -0.000190536748928 0)
(0.000105420674101 -0.000178035381544 0)
(0.000113739980959 -0.000177968934448 0)
(0.00012208913925 -0.000186259945335 0)
(0.000122059287818 -0.000177902487352 0)
(0.000105487117369 -0.000186354209207 0)
(0.000113806424228 -0.000186287762111 0)
(9.71012075106e-05 -0.000178101829915 0)
(8.87819006521e-05 -0.000178168277011 0)
(9.7167650779e-05 -0.000186420657578 0)
(8.88483439205e-05 -0.000186487104674 0)
(0.00010129416244 -0.000182228019561 0)
(0.000105453895735 -0.000182194795375 0)
(0.000117932935889 -0.000182095124094 0)
(0.000113773202594 -0.000182128348279 0)
(0.000118021150658 -0.000186199786443 0)
(0.000126318698773 -0.000190349101978 0)
(0.000125793623907 -0.000173888697772 0)
(0.000109679925325 -0.000190481997446 0)
(9.30413116078e-05 -0.000190614891637 0)
(0.000101360618466 -0.000190548444541 0)
(0.000105520351761 -0.000190515220356 0)
(9.29748555814e-05 -0.000182294466657 0)
(0.000109613239656 -0.000182132820757 0)
(0.000109580247664 -0.000178002158633 0)
(8.88815783126e-05 -0.000190648115823 0)
(0.000126252242747 -0.000182028676998 0)
(0.000117999391915 -0.000190415549074 0)
(0.000105520351761 -0.000190515220356 0)
(9.72008851711e-05 -0.000190581668727 0)
(8.88483439205e-05 -0.000186487104674 0)
(0.000109580247664 -0.000178002158633 0)
(0.000105453895735 -0.000182194795375 0)
(0.000101260940806 -0.000178068605729 0)
(0.000105449745273 -0.000178035149349 0)
(0.000117844574145 -0.000177992060338 0)
(0.000113773202594 -0.000182128348279 0)
(0.000113739980959 -0.000177968934448 0)
(0.000126285464381 -0.000186188090829 0)
(0.000122158569983 -0.000190332809333 0)
(0.000122092509452 -0.000182061901184 0)
(0.000117966157523 -0.000186254537925 0)
(0.000122128797626 -0.000186245251808 0)
(0.000122026066184 -0.00017374307352 0)
(0.000126219021113 -0.000177869263166 0)
(0.000109646690933 -0.000186320986297 0)
(0.000101327384074 -0.000186387433393 0)
(0.000105487117369 -0.000186354209207 0)
(0.00011383965862 -0.00019044877326 0)
(9.29416339472e-05 -0.000178135052825 0)
(9.71344291448e-05 -0.000182261243747 0)
(8.88151222863e-05 -0.000182327690843 0)
(9.30080772156e-05 -0.000186453880488 0)
(8.88815783126e-05 -0.000190648115823 0)
(0.000130084670406 -0.000194576144542 0)
(0.00010335741827 -0.000180131700552 0)
(0.000129991583579 -0.000186281490969 0)
(0.000129611520589 -0.0001781568585 0)
(0.000120051172096 -0.000179942456285 0)
(0.000103390639905 -0.000184291114384 0)
(9.91976849752e-05 -0.000180164924738 0)
(9.92309066094e-05 -0.00018432433857 0)
(0.000115836458424 -0.000180032029271 0)
(0.000120029253622 -0.000184158220192 0)
(0.000103390639905 -0.000184291114384 0)
(0.000115869680058 -0.000184191443102 0)
(0.000107616669494 -0.000192578316454 0)
(0.000103457095931 -0.000192611539364 0)
(0.000107616669494 -0.000192578316454 0)
(9.92957780766e-05 -0.000192646373625 0)
(9.51376293407e-05 -0.000192677987736 0)
(0.000103457095931 -0.000192611539364 0)
(0.000107616669494 -0.000192578316454 0)
(8.89147999469e-05 -0.000194807529655 0)
(8.88483439205e-05 -0.000186487104674 0)
(0.000107483929931 -0.000175939062535 0)
(0.000103322452345 -0.000175973898071 0)
(0.00010335741827 -0.000180131700552 0)
(0.000107516991834 -0.000180098477642 0)
(0.000103324196636 -0.000175972286721 0)
(0.000111643503495 -0.000175905839625 0)
(0.000115836458424 -0.000180032029271 0)
(0.00011580323679 -0.000175872615439 0)
(0.000111676725129 -0.000180065253456 0)
(0.000120095709648 -0.000192478645173 0)
(0.000124255442943 -0.000192445420987 0)
(0.000120029253622 -0.000184158220192 0)
(0.000124188986917 -0.000184124996007 0)
(0.000120062488014 -0.000188319231341 0)
(0.000124222221309 -0.000188286007155 0)
(0.000119996031987 -0.000179998806361 0)
(0.000119939636497 -0.000175837980202 0)
(0.000124155765282 -0.000179965582175 0)
(0.00010758344786 -0.000188418902623 0)
(0.000103423874297 -0.000188452125533 0)
(0.000103390639905 -0.000184291114384 0)
(0.000107550213468 -0.000184257891474 0)
(0.000103423874297 -0.000188452125533 0)
(0.000111776402789 -0.000192545092269 0)
(0.000115936136085 -0.000192511868083 0)
(0.000111774658498 -0.000192546703619 0)
(0.000111743181155 -0.000188385678437 0)
(0.000115869680058 -0.000184191443102 0)
(0.000111709946763 -0.000184224667288 0)
(0.00011590291445 -0.000188352454251 0)
(9.50047300459e-05 -0.000176038735092 0)
(9.9164463341e-05 -0.000176005510906 0)
(9.50379516801e-05 -0.000180198148924 0)
(9.91976849752e-05 -0.000180164924738 0)
(9.50047300459e-05 -0.000176038735092 0)
(9.9164463341e-05 -0.000176005510906 0)
(9.50379516801e-05 -0.000180198148924 0)
(9.08451564825e-05 -0.000176071958002 0)
(9.09154619055e-05 -0.000180194335004 0)
(9.08451564825e-05 -0.000176071958002 0)
(9.08783781167e-05 -0.000180231371834 0)
(8.66854231874e-05 -0.000176105182188 0)
(9.92641410016e-05 -0.000188485349719 0)
(9.50711733143e-05 -0.000184357562756 0)
(9.92309066094e-05 -0.00018432433857 0)
(9.51044077065e-05 -0.000188518573904 0)
(9.92641410016e-05 -0.000188485349719 0)
(9.50711733143e-05 -0.000184357562756 0)
(9.09780557773e-05 -0.000192711210646 0)
(9.09115997509e-05 -0.000184390785666 0)
(9.09815857106e-05 -0.000188513165219 0)
(0.000103324196636 -0.000175972286721 0)
(0.000107516991834 -0.000180098477642 0)
(0.0001074837702 -0.000175939063811 0)
(0.00011580323679 -0.000175872615439 0)
(0.000111676725129 -0.000180065253456 0)
(0.000111643503495 -0.000175905839625 0)
(0.000120095709648 -0.000192478645173 0)
(0.000120062488014 -0.000188319231341 0)
(0.000103423874297 -0.000188452125533 0)
(0.000107550213468 -0.000184257891474 0)
(0.00010758344786 -0.000188418902623 0)
(0.000115936136085 -0.000192511868083 0)
(0.000111776402789 -0.000192545092269 0)
(0.000111709946763 -0.000184224667288 0)
(0.00011590291445 -0.000188352454251 0)
(0.000111743181155 -0.000188385678437 0)
(0.00010129416244 -0.000182228019561 0)
(0.000103374029087 -0.000182211407468 0)
(0.000133661477361 -0.000182279398029 0)
(0.000115853069241 -0.000182111736186 0)
(0.000117949546706 -0.000184174831009 0)
(0.00010954702603 -0.000173842744802 0)
(0.000109679925325 -0.000190481997446 0)
(9.2908412313e-05 -0.000173975638993 0)
(0.000133789303549 -0.000190503487698 0)
(0.00013352339007 -0.000174050598059 0)
(0.000101360618466 -0.000190548444541 0)
(0.000103440485114 -0.000190531832449 0)
(0.000117932935889 -0.000182095124094 0)
(9.29742304431e-05 -0.000182216198117 0)
(0.00010129416244 -0.000182228019561 0)
(0.000107478622273 -0.000182234533358 0)
(0.00011169300424 -0.000182103430127 0)
(0.000109598602772 -0.000180080254198 0)
(0.000109613469298 -0.000182161572465 0)
(0.000126252242747 -0.000182028676998 0)
(0.000117999391915 -0.000190415549074 0)
(9.30413116078e-05 -0.000190614891637 0)
(9.09614449602e-05 -0.00019063150373 0)
(0.000109613469298 -0.000182161572465 0)
(0.000101227719171 -0.000173909191898 0)
(0.00010954702603 -0.000173842744802 0)
(0.000109563636847 -0.000175922451718 0)
(0.000117999391915 -0.000190415549074 0)
(0.000126318698773 -0.000190349101978 0)
(0.000124238832126 -0.000190365714071 0)
(0.000101360618466 -0.000190548444541 0)
(0.000109624932189 -0.000190536748928 0)
(0.000109708996497 -0.000190481765251 0)
(0.000107600058677 -0.000190498609539 0)
(0.000109653887774 -0.000192562044998 0)
(9.29748555814e-05 -0.000182294466657 0)
(8.66688123703e-05 -0.000174025475272 0)
(0.000105536962578 -0.000192594927272 0)
(9.72174959883e-05 -0.000192661375643 0)
(0.000105404063284 -0.000175955674628 0)
(0.000105420674101 -0.000178035381544 0)
(0.000107500381017 -0.000178018770726 0)
(0.000105473889512 -0.000180078055457 0)
(0.000103340577811 -0.000178023241928 0)
(0.000113739980959 -0.000177968934448 0)
(0.000113723714606 -0.000175932355095 0)
(0.000111660114312 -0.000177985546541 0)
(0.000115818103316 -0.000177953933706 0)
(0.000113756591776 -0.000180048641364 0)
(0.000122175576295 -0.00019246203308 0)
(0.000122125731086 -0.000186221315015 0)
(0.000124205597734 -0.000186204702922 0)
(0.000122113283489 -0.000188302851442 0)
(0.000122109120269 -0.000184141608099 0)
(0.000120045864439 -0.000186237927108 0)
(0.000122134037135 -0.000186221248674 0)
(0.000122059287818 -0.000177902487352 0)
(0.000119956247314 -0.000177917687118 0)
(0.000122075898635 -0.000179982194268 0)
(0.000122059287818 -0.000177902487352 0)
(0.000122042677001 -0.000175822780436 0)
(0.000124139154465 -0.000177885875259 0)
(0.000105503740944 -0.00018843551344 0)
(0.000105470506552 -0.000184274502291 0)
(0.000105487117369 -0.000186354209207 0)
(0.000107566824285 -0.00018633759839 0)
(0.000103407250722 -0.0001863708213 0)
(0.000113856269437 -0.000192528480176 0)
(0.000113788228851 -0.00018420966527 0)
(0.000115923055201 -0.00018623411574 0)
(0.000113806424228 -0.000186287762111 0)
(0.00011172655758 -0.000186304374204 0)
(0.000113823047803 -0.000188369066344 0)
(9.70845966935e-05 -0.000176022122999 0)
(9.71012075106e-05 -0.000178101829915 0)
(9.91810741581e-05 -0.000178085217822 0)
(9.5021340863e-05 -0.000178118442008 0)
(9.71012075106e-05 -0.000178101829915 0)
(9.71178183277e-05 -0.000180181536831 0)
(8.87446698895e-05 -0.000178206912433 0)
(8.87819006521e-05 -0.000178168277011 0)
(9.08617672996e-05 -0.000178151664918 0)
(8.8765289835e-05 -0.000176088570095 0)
(8.87985114692e-05 -0.000180247983927 0)
(9.7184274354e-05 -0.000188501961811 0)
(9.7167650779e-05 -0.000186420657578 0)
(9.92475174266e-05 -0.000186404045486 0)
(9.71510399619e-05 -0.000184340950663 0)
(9.50877841315e-05 -0.000186437269671 0)
(9.7167650779e-05 -0.000186420657578 0)
(8.88981891298e-05 -0.000192727822739 0)
(8.88481142779e-05 -0.000186458352966 0)
(8.88317331034e-05 -0.000184407397758 0)
(9.09282105681e-05 -0.000186470492581 0)
(8.88649674955e-05 -0.000188568408907 0)
(0.000105420674101 -0.000178035381544 0)
(0.000113739980959 -0.000177968934448 0)
(0.000122125731086 -0.000186221315015 0)
(0.000105487117369 -0.000186354209207 0)
(0.000113806424228 -0.000186287762111 0)
(0.000101260940806 -0.000178068605729 0)
(0.000103340807453 -0.000178051993636 0)
(0.000101327384074 -0.000186387433393 0)
(0.000103407250722 -0.0001863708213 0)
(9.71344291448e-05 -0.000182261243747 0)
(0.000103374029087 -0.000182211407468 0)
(0.000101277551623 -0.000180148312645 0)
(0.000101310773257 -0.000184307726477 0)
(9.92142957923e-05 -0.000182244631654 0)
(0.000105437284918 -0.000180115088459 0)
(0.000105470506552 -0.000184274502291 0)
(0.000105453895735 -0.000182194795375 0)
(8.88317331034e-05 -0.000184407397758 0)
(8.88151222863e-05 -0.000182327690843 0)
(0.000117916325072 -0.000180015417178 0)
(0.000115853069241 -0.000182111736186 0)
(0.000120012642804 -0.000182078513276 0)
(0.000117949546706 -0.000184174831009 0)
(0.000115819847607 -0.000177952322355 0)
(0.000113756591776 -0.000180048641364 0)
(0.000113773202594 -0.000182128348279 0)
(0.000122092509452 -0.000182061901184 0)
(0.000122080049097 -0.000184141840294 0)
(0.000120045864439 -0.000186237927108 0)
(0.000117966157523 -0.000186254537925 0)
(0.000109580247664 -0.000178002158633 0)
(0.000105387452467 -0.000173875967712 0)
(0.000109563636847 -0.000175922451718 0)
(0.000122158965478 -0.000190382326164 0)
(0.000126335309591 -0.000192428808894 0)
(0.000126302087956 -0.000188269395062 0)
(0.000124238832126 -0.000190365714071 0)
(0.000109646690933 -0.000186320986297 0)
(0.00011383965862 -0.00019044877326 0)
(0.000105520351761 -0.000190515220356 0)
(0.000107600058677 -0.000190498609539 0)
(0.000109696536142 -0.000192561704362 0)
(0.000109663314508 -0.00018840229053 0)
(0.000111759791972 -0.000190465385353 0)
(9.29250231301e-05 -0.000176055345909 0)
(9.70679858764e-05 -0.000173942416083 0)
(9.29416339472e-05 -0.000178135052825 0)
(8.87486790179e-05 -0.000174008863179 0)
(9.51210185236e-05 -0.00019059828082 0)
(9.30579224249e-05 -0.000192694598553 0)
(9.30247007906e-05 -0.000188535184721 0)
(9.09614449602e-05 -0.00019063150373 0)
(9.72008851711e-05 -0.000190581668727 0)
(9.30080772156e-05 -0.000186453880488 0)
(0.000101242745429 -0.000175990508889 0)
(0.000105387452467 -0.000173875967712 0)
(0.000105402318993 -0.000175957285979 0)
(9.72008851711e-05 -0.000190581668727 0)
(0.000101377229283 -0.000192628151457 0)
(0.000103440485114 -0.000190531832449 0)
(9.92807518187e-05 -0.000190565056634 0)
(0.000101344007649 -0.000188468737626 0)
(0.000105536962578 -0.000192594927272 0)
(0.000105520351761 -0.000190515220356 0)
(0.000105520351761 -0.000190515220356 0)
(0.000105503740944 -0.00018843551344 0)
(0.000117899714254 -0.000177935710262 0)
(0.000113773202594 -0.000182128348279 0)
(0.000122092509452 -0.000182061901184 0)
(0.000117966157523 -0.000186254537925 0)
(8.88151222863e-05 -0.000182327690843 0)
(0.000113723370142 -0.000175889227532 0)
(0.000113706759325 -0.000173809520616 0)
(0.000122026066184 -0.00017374307352 0)
(9.29416339472e-05 -0.000178135052825 0)
(9.09282105681e-05 -0.000186470492581 0)
(9.30080772156e-05 -0.000186453880488 0)
(9.29582447643e-05 -0.000180214759741 0)
(9.50545624972e-05 -0.00018227785584 0)
(9.08949889338e-05 -0.00018231107875 0)
(9.29914663985e-05 -0.000184374173573 0)
(0.000105453895735 -0.000182194795375 0)
(0.000101260940806 -0.000178068605729 0)
(0.000101327384074 -0.000186387433393 0)
(9.71344291448e-05 -0.000182261243747 0)
(0.000109596858481 -0.000180081865549 0)
(0.000107533602651 -0.000182178184558 0)
(0.000111693335946 -0.000182144960372 0)
(0.000109630080116 -0.000184241279381 0)
(0.000107500381017 -0.000178018770726 0)
(0.000111660114312 -0.000177985546541 0)
(0.000109580247664 -0.000178002158633 0)
(0.000107590170631 -0.000186340606758 0)
(0.000109646690933 -0.000186320986297 0)
(8.88981891298e-05 -0.000192727822739 0)
(8.88665520548e-05 -0.000188566798832 0)
(8.88815783126e-05 -0.000190648115823 0)
(0.000126268853564 -0.000184108383914 0)
(0.0001241723761 -0.000182045289091 0)
(0.00012623563193 -0.000179948970082 0)
(0.000126285464381 -0.000186188090829 0)
(0.000124205597734 -0.000186204702922 0)
(0.000126219021113 -0.000177869263166 0)
(0.000120079098831 -0.000190398938257 0)
(0.000118016002732 -0.00019249525599 0)
(0.000117982781098 -0.000188335842158 0)
(0.000115919525267 -0.000190432161167 0)
(0.000122214105587 -0.000190325976088 0)
(0.000122144086194 -0.00018829941058 0)
(0.000122158965478 -0.000190382326164 0)
(0.00011383965862 -0.00019044877326 0)
(0.000133828237251 -0.00019465806365 0)
(0.000130056841376 -0.000190411895382 0)