/*--------------------------------*- C++ -*----------------------------------*\
| =========                 |                                                 |
| \\      /  F ield         | OpenFOAM: The Open Source CFD Toolbox           |
|  \\    /   O peration     | Version:  2406                                  |
|   \\  /    A nd           | Website:  www.openfoam.com                      |
|    \\/     M anipulation  |                                                 |
\*---------------------------------------------------------------------------*/
FoamFile
{
    version     2.0;
    format      ascii;
    arch        "LSB;label=32;scalar=64";
    class       volVectorField;
    location    "0.01";
    object      U;
}
// * * * * * * * * * * * * * * * * * * * * * * * * * * * * * * * * * * * * * //

dimensions      [0 1 -1 0 0 0 0];

internalField   nonuniform List<vector> 
29768
(
(0.0177627400151 -0.0359982392246 -0.00210138997899)
(0.0694354869305 -0.364630821078 0.0349852337619)
(0.0607602902224 -0.344565111084 0.0218314973466)
(0.0905729876428 -0.41601334358 0.730240908994)
(0.00453075278189 -0.120652877409 0.132503563438)
(0.0355340773083 -0.264151705342 -0.0150784591996)
(0.0428100382999 -0.18222844109 -0.0352974709415)
(0.00808791510319 -0.0904835310399 -0.0364427403529)
(-0.00943566298426 -0.102801085018 0.0960836184625)
(0.0104646689837 -0.174827179722 0.268364811335)
(0.0913525784179 -0.426629772717 0.0760351335997)
(0.0698993831143 -0.392171257948 -0.0247285753632)
(0.0893002961626 -0.451153055991 -0.00813192042426)
(0.0741110893496 -0.38880948575 -0.0365694593686)
(0.0873020824374 -0.448857729453 -0.0295856187664)
(0.0433773574819 -0.285297811032 -0.00587441332276)
(0.0668289089724 -0.369549406099 -0.0309704269345)
(0.0402217972311 -0.208788649686 -0.0365270112703)
(0.0255039224934 -0.153097908912 0.0205013936274)
(0.183649953432 -0.682540874914 1.0806074935)
(0.203621505147 -0.67094340356 1.09497840572)
(0.0224071006223 -0.148636023462 0.0162695251016)
(0.0263382347937 -0.166454621981 0.0128981171711)
(0.0237309035995 -0.159726750267 0.00846173526914)
(0.071741432102 -0.339028493187 0.0684649622513)
(0.018843523045 -0.0348004636712 -0.000148072044528)
(0.018137807148 -0.0334765984214 -0.00158188068151)
(0.0578902750994 -0.323159505838 0.053005633893)
(0.0190799311499 -0.0323432622996 2.35504506985e-05)
(-0.0242595947226 -0.583790800492 0.122204989199)
(0.0184844598268 -0.0865946660568 -0.00605777489987)
(-0.0502112251635 -0.478075507278 0.10389313004)
(-0.0766456329861 -0.364722378196 0.0906486513421)
(0.0178164124954 -0.0866064072185 -0.00220092307628)
(0.0148816670522 -0.0463792627876 -0.00468588526161)
(-0.0571775585366 -0.443114460685 0.0920796300467)
(0.0270587955465 -0.213621135399 0.0126726042245)
(0.0215166963334 -0.0375719872163 0.0103960469226)
(0.0502180245564 -0.647806563027 0.0723535180386)
(-0.0105321622808 -0.498550513597 0.0680428824877)
(0.0244304870656 -0.623016099492 0.0742713138617)
(0.0132118949257 -0.50276728587 0.0446003456031)
(0.0993176064082 -0.894274786385 0.23870444336)
(0.0438254506896 -0.677037974883 0.10939722861)
(0.104776935924 -0.911786224529 0.61652754559)
(0.0571860694675 -0.847324726138 0.313987245132)
(-0.012203899096 -0.128044664366 0.0975476379276)
(0.119833281559 -0.931209933626 0.643083171296)
(0.123032788799 -0.939943579082 0.326603174529)
(0.0165702484092 -0.198296563666 0.288122157273)
(0.15945202445 -0.97075203559 0.702224149365)
(0.073546491528 -0.864630667891 0.310196958095)
(-0.014136890523 -0.132757230665 0.113224622002)
(0.228419329999 -0.932567347857 0.850017841891)
(0.135093850065 -0.969086769656 0.348786419874)
(0.0358930268114 -0.238661103746 0.29670420819)
(0.179665663134 -0.964113879542 0.746743169158)
(0.0678350167804 -0.332492757912 0.514937458307)
(-0.0142897104339 -0.593405471701 0.119018051699)
(0.0201821704041 -0.0911168149861 -0.00667186208335)
(-0.0178506835203 -0.495417397501 0.0784760402553)
(0.0126862904936 -0.615712346158 0.0855739367639)
(-0.0426269733655 -0.482950259995 0.0984593871444)
(-0.012649276617 -0.632919566131 0.154117730084)
(0.033915741441 -0.791465532502 0.233432408239)
(-6.10541362796e-05 -0.644216579248 0.148198026882)
(0.0875277304737 -0.870739955437 0.2219051855)
(0.0309404840926 -0.6714529565 0.112398123162)
(0.0483275579001 -0.808101227633 0.22691170431)
(-0.0249792912647 -0.381410202402 0.0410049209432)
(0.0365542235247 -0.171845499769 -0.0229680790079)
(-0.0207297779357 -0.4621549375 0.0592636150993)
(0.000658535301974 -0.466576626572 0.0350614298581)
(-0.04440652583 -0.377512382338 0.064958053151)
(-0.0331500038182 -0.355565263398 0.040072109266)
(0.0397475273353 -0.164579286106 -0.0279253862172)
(-0.0512547846475 -0.350935721865 0.057436244549)
(-0.0692222263236 -0.367407606515 0.0847027436627)
(0.0203097909901 -0.0913980546102 -0.00222967679709)
(0.0364243321732 -0.147385123959 -0.0154013688664)
(-0.0276482967689 -0.459122629203 0.0688969955307)
(0.00992679197422 -0.0645646595801 -0.00441039322472)
(-0.0501998817902 -0.446927156661 0.0866617200455)
(-0.0505385040294 -0.374669415925 0.069377852088)
(-0.0821288768007 -0.339003890434 0.085564358143)
(-0.0749959987354 -0.341372339421 0.0791143125132)
(0.0385550925457 -0.142354664139 -0.00539895266814)
(0.0108229824734 -0.0489274114417 -0.00502710041963)
(-0.056702382543 -0.348146498574 0.0637312416455)
(-0.0137731708956 -0.0701076803088 -0.0113148873814)
(-0.00975848814646 -0.0832245785623 0.0425516743122)
(-0.0177751504209 -0.0731998560967 0.00638516404322)
(0.0315961790931 -0.224465261784 0.017674835637)
(0.117487049945 -0.896141202488 0.728789852829)
(0.145675156585 -0.72897960084 1.01323218168)
(0.125523068127 -0.825461424694 0.903498141015)
(0.0697498050012 -0.389975519623 0.46777539497)
(0.130583752254 -0.692618973488 0.966601078222)
(0.101317815113 -0.46428882721 0.981997575118)
(0.140717313112 -0.662438593689 0.983119906996)
(0.130753609683 -0.433133706819 0.992495457422)
(0.0310820478961 -0.163874758892 0.0365283626787)
(0.00972197809674 -0.144311102653 -0.00567055870209)
(0.0192285374609 -0.0748554852923 0.00902200557837)
(0.00139510492943 -0.137163700313 -0.012674317813)
(-0.00173391325093 -0.0968424461896 -0.0119326697901)
(0.0273270222117 -0.0644392254646 0.0287581329019)
(0.134337535151 -0.904648760611 0.754342027711)
(0.189817689171 -0.696135622936 1.04882778953)
(0.159659896131 -0.795100229333 0.946989284914)
(0.0977920241842 -0.434368143411 0.638500943252)
(0.14822216634 -0.810569723255 0.929607897457)
(0.16641922593 -0.91771352626 0.802671415922)
(0.0746888448113 -0.376191926277 0.503700213523)
(0.0493571180119 -0.167943877051 0.234445288453)
(0.0261164384876 -0.212572321875 0.22511673722)
(0.219952653769 -0.896278296804 0.910057123497)
(0.197859425714 -0.655088283635 1.12554368884)
(0.180085535155 -0.782116855687 0.970404230575)
(0.10491134597 -0.429668555707 0.623419057945)
(0.194125494944 -0.760743156553 0.988537106665)
(0.187458843674 -0.919119967997 0.841042077866)
(0.118600737299 -0.455186019467 0.765559693361)
(0.00117866062554 -0.168521329764 0.217056149915)
(0.0109716070364 -0.0374970651225 -0.041590585256)
(-0.0172927826185 -0.0649091605966 -0.0488355628123)
(-0.00666624340658 -0.221767640063 0.211690096854)
(0.0175219171742 -0.193371697502 -0.0103130847049)
(0.0192470689303 -0.126797998096 0.00448090336582)
(0.0126845178331 -0.154259102154 -0.0050854710112)
(0.0163568262158 -0.0794057508255 0.0102211459915)
(0.00529323159014 -0.155052075887 -0.00950336032179)
(0.0118352424435 -0.211289694966 -0.0326602151702)
(0.0110549962085 -0.0855718450327 0.00757358629016)
(0.0078553094674 -0.127003047708 -0.0303386196923)
(0.00807397248741 -0.119701019722 -0.00437677857135)
(0.0310646562537 -0.181047283857 0.0270634717193)
(0.0289208595369 -0.186081488469 -0.00538604360046)
(0.011487418971 -0.144172158798 -0.00475639193741)
(0.0375805973702 -0.212540412099 0.00583259398689)
(0.00280414049585 -0.105952350558 -0.00978314684325)
(0.0129331331957 -0.146620351476 -0.00752278773477)
(-0.007865314998 -0.224493039367 -0.00719915923127)
(0.0214945770709 -0.129100873596 -0.00412633483836)
(0.0272761186779 -0.173078232816 -0.0101625573949)
(0.0135801315465 -0.154182867442 -0.00520057240543)
(0.0291393077257 -0.12117584631 -0.00703733812549)
(0.00540392667674 -0.216965044189 -0.0225052521334)
(0.0101728130563 -0.164153120354 -0.016923748975)
(0.0196974663392 -0.0438481917501 -0.00317831097174)
(0.0196033024222 -0.0363146880627 -0.00112211083988)
(0.0216746979039 -0.0490321544285 -0.00104991852844)
(0.0132755805685 -0.0566178569009 -0.0315758698345)
(0.0194314014908 -0.0313475006964 2.00850786417e-05)
(0.0139438373616 -0.0496763257581 -0.0200001674089)
(0.0483002423227 -0.304196011239 0.0435706874201)
(0.0286368436944 -0.188960579513 0.109796188034)
(0.0154273904706 -0.189074754163 0.0834130439556)
(0.0193921070404 -0.0320742183971 -0.000828500093097)
(-0.0341202453122 -0.55234368201 0.123169305577)
(-0.0153453850421 -0.528942394022 0.0347525052876)
(-0.0262226699212 -0.491110958203 0.0387239484248)
(-0.0112366890921 -0.28917754341 0.000917575341999)
(0.0203405284409 -0.0667060557432 -0.00129853713685)
(-0.00785373374922 -0.309467626699 -0.00912370048242)
(0.0111363575977 -0.315095895855 -0.0547810776139)
(0.0211425594657 -0.0565860981737 -0.000544120611552)
(-0.00534718114014 -0.315984879979 -0.014546707162)
(0.0153502737941 -0.0823217950923 -0.000967390221392)
(-0.0129419908643 -0.282713787305 0.00154782852801)
(-0.0199731602818 -0.266090593004 0.00422056134639)
(-0.036976936385 -0.244449182321 0.00904561011562)
(0.0123031866783 -0.0767096734302 -0.00278006985708)
(-0.0245622755095 -0.260876133407 0.00414666886175)
(0.0268294095055 -0.161407583117 0.0310391364517)
(0.0270595455758 -0.136022612789 0.0359951788617)
(0.0437113624542 -0.16570487548 -0.0271017025872)
(0.0567066535143 -0.306065991656 -0.0397267913727)
(0.0425063458839 -0.192361702365 -0.0425040052104)
(0.0319481933955 -0.22516499963 -0.0119054428802)
(0.0406899827763 -0.638302810198 0.0757905033475)
(0.0361183978515 -0.589951047811 0.0621882763064)
(0.0307849642028 -0.58798549992 0.0688282008576)
(0.0223237972163 -0.235031790834 -0.0140772416864)
(0.030196828386 -0.167015767097 0.0459280268108)
(0.00765502642523 -0.0555826215338 -0.0110027876469)
(0.0302797699708 -0.0694703019095 0.0409903563172)
(0.0335905537175 -0.251831628323 -0.0399130818094)
(0.00768331999316 -0.312570093254 -0.00473054400678)
(-0.00147689862899 -0.53699433064 0.0704071841485)
(-0.00271300253815 -0.499964617301 0.0575032013224)
(0.00897715152639 -0.539794002476 0.0584568966652)
(0.0132844540652 -0.334724383499 -0.0201031087642)
(0.0125095939065 -0.270203711091 -0.0287123507989)
(0.0161057444682 -0.0381533824259 0.00215829509922)
(0.00363454148699 -0.125157835166 -0.0149660561089)
(0.0352133901693 -0.246123081635 -0.0230433568163)
(0.0327422929211 -0.629206374271 0.0730619174853)
(0.0121920393379 -0.582264785895 0.0762143176153)
(0.0394315276553 -0.328329716302 -0.0504682552253)
(0.0220137195878 -0.586470136391 0.0688097140709)
(0.0302242887585 -0.251115815356 -0.0119700061182)
(0.0178247553415 -0.340175117988 -0.0270981982277)
(0.0337357891134 -0.224545809087 -0.0176840025695)
(0.0226887851945 -0.542680153511 0.0483253913764)
(0.00666521649477 -0.502858906292 0.0468709954862)
(0.0180028119138 -0.540510732879 0.0518021390712)
(0.0206271346492 -0.244244523534 -0.0447669452267)
(-0.00165170207741 -0.220044203727 -0.0472475634469)
(0.0641626146173 -0.69844382604 0.102260220872)
(0.0954268332852 -0.793129424479 0.161229108032)
(0.0176221507953 -0.237668218651 -0.0183749591538)
(-0.0162883305927 -0.264781805076 -0.0486235855978)
(0.0154911518208 -0.527603651263 0.00100027081038)
(0.144415427942 -0.926250056872 0.292382399934)
(0.0803805573807 -0.815287852545 0.184728152248)
(0.0958122653871 -0.828597179229 0.181823981338)
(0.00639058373171 -0.129907148393 -0.0646986326103)
(0.0370838717208 -0.381598974789 -0.00832568094215)
(-0.017310764865 -0.177462565618 -0.0645047215096)
(0.160407006084 -0.939301281938 0.304516986961)
(0.1104242446 -0.830917165311 0.191556081111)
(0.00191727189708 -0.271621217394 -0.0350592512051)
(0.0534319787423 -0.684288727052 0.104228541759)
(0.0587528024635 -0.741963526479 0.133433080916)
(0.0471177635793 -0.32482173479 -0.0326752188)
(0.0718731856404 -0.752330974093 0.129311639263)
(0.0263671794597 -0.256361391848 -0.0129582128129)
(0.0438852704385 -0.356772734595 -0.0125623017175)
(-0.0310386076989 -0.427024745663 -0.0117322952835)
(-0.0887170018285 -0.693855405066 0.0433430834114)
(0.0735856421913 -0.901541887439 0.389196258825)
(0.0570615144746 -0.780826732074 0.0699696733347)
(0.115188545421 -1.0127162607 0.17614648324)
(0.255948598992 -0.924693106148 0.726282353755)
(0.20063158724 -0.793987824721 0.185041280237)
(0.252103088416 -0.927789435322 0.396751623113)
(0.0629312042353 -0.637615550088 0.0367340953168)
(0.151108610739 -1.00316804698 0.468652993008)
(0.110560003106 -0.915787811769 0.316896591402)
(0.137312010634 -0.977714544345 0.442776952358)
(0.222759393963 -0.942955464066 0.45759589767)
(0.126115313381 -0.636210162708 0.0130472212717)
(0.0287434864717 -0.306215595234 0.439558535378)
(0.000955101689652 -0.0445092916101 -0.0480295837425)
(0.156691141443 -0.607556666591 0.709772153652)
(0.00934483984754 -0.166636024285 0.22168610113)
(0.176494943175 -0.725115876314 0.864825942507)
(0.0837891042369 -0.3471092629 0.450772025863)
(0.0018170807989 -0.0369600356376 -0.0492865610179)
(-0.0587824393087 -0.345207853956 -0.0381782899456)
(-0.081247193115 -0.187611831959 -0.0350145489952)
(0.228223546877 -0.862067016217 0.190689356086)
(0.0944509094298 -0.926150638954 0.388592769189)
(0.0924033267277 -0.889257979702 0.302135164219)
(0.0612645314191 -0.769017329746 0.0382479238404)
(0.115681690025 -0.951770826393 0.400003598864)
(0.142746972514 -0.981519168685 0.0828951202059)
(0.127547425258 -0.655895601575 -0.0272960316474)
(0.0312852242159 -0.246532305883 0.31494231113)
(0.280835417396 -0.809063623899 0.771390040144)
(0.00285822055899 -0.155515198514 0.191290263909)
(0.19350937983 -0.697705387076 0.848126180016)
(0.243038248916 -0.365255294653 0.260252348231)
(0.00632582771937 -0.0285490871875 -0.0234033425373)
(0.225594336862 -0.428392781938 0.556170635169)
(0.00475606756152 -0.642289527498 0.0216167010443)
(0.163496188833 -0.958817713714 0.355189988262)
(0.17609115572 -1.03676996852 0.513643345072)
(0.260064896724 -0.918033813236 0.468274928207)
(0.202139105727 -0.982813721711 0.570587544054)
(0.0141323737473 -0.209208486794 0.278997207781)
(0.0187599970196 -0.0346966231958 -0.0057961216007)
(-0.0160417984233 -0.0737081319596 -0.0442339565148)
(0.0838287923804 -0.30530246705 0.444424203867)
(-0.00846356373579 -0.0606422526155 -0.0567142433243)
(0.160000210234 -0.604598288316 0.732898236145)
(0.0364308429434 -0.258393019754 0.364871906363)
(-0.0252086530499 -0.0828493130269 -0.00690056328993)
(0.0720582334568 -0.354927815966 0.432102426905)
(0.163499875661 -0.562278392351 0.765279147482)
(0.0171685778749 -0.414675809169 0.00316189814246)
(-0.00322245178339 -0.601269247343 0.110234437476)
(-0.0253370871176 -0.55884211046 0.120330608621)
(0.0110367637843 -0.480351460343 0.00447305723137)
(-0.0179431407534 -0.442467015818 0.00870950208319)
(-0.0137732402668 -0.56591847395 0.111901083377)
(0.0227885879293 -0.451136724293 0.00216189543294)
(0.0181554144713 -0.21081425632 -0.0168489740191)
(0.0206731720209 -0.116698245018 -0.00276826497095)
(-0.0098018785234 -0.279896835999 -0.00278916667981)
(0.0203423413837 -0.0691903615945 -0.00157486966818)
(-0.00435848353298 -0.295562651089 -0.0173732132558)
(0.00140820766828 -0.234087558296 -0.0254638937228)
(0.0123472692703 -0.0825267619013 0.00572717618631)
(0.0103574021788 -0.37800492564 0.00483520375417)
(0.00723450300582 -0.322565321485 -0.00132001511105)
(-0.00982033997674 -0.533322473254 0.0817376788541)
(-0.0265487011421 -0.49268316693 0.0865363873609)
(0.011621553475 -0.348846716533 -0.00944736757054)
(-0.0182186318741 -0.529742733766 0.0901064240662)
(-0.00364991726742 -0.349063490725 -0.00146102822858)
(0.0169654096122 -0.194544428661 -0.00700681643221)
(0.0143270745501 -0.046754154783 0.0068996549741)
(0.00763296152439 -0.0971988509444 -0.0154976065054)
(0.0033873414218 -0.151287073796 -0.0120438594975)
(0.0108152479552 -0.201875382487 -0.0101719758735)
(0.0111755166343 -0.0621223275212 0.000954509029359)
(0.0191581911154 -0.392804549439 0.00349739810059)
(0.00520201732208 -0.609369813759 0.0981166576575)
(0.00224476537303 -0.578531892864 0.0894156794941)
(0.0328815462325 -0.373278716996 -0.0444402876753)
(0.0143864691102 -0.357539783467 -0.0144656231658)
(-0.00520820444197 -0.574116319621 0.100148044452)
(0.0229665196635 -0.437778028154 -0.00348892579318)
(-0.00504369490264 -0.441449438895 0.0217832077127)
(-0.0351840735713 -0.516547394377 0.105321423976)
(-0.0310899198131 -0.419406778569 0.0313860044925)
(-0.0343468202576 -0.486887162022 0.0924713569624)
(-0.0244050525223 -0.450692594987 0.0309990286104)
(-0.0262490484369 -0.522217492656 0.0974520901952)
(-0.0202085220168 -0.408969905498 0.0201914872787)
(0.0196878974058 -0.211204747962 -0.00934519807268)
(0.0216436952201 -0.279736807864 -0.0400737618956)
(0.0211225141728 -0.0575674055906 -0.00102202311967)
(-0.000801469676117 -0.298464205982 -0.0235737328428)
(0.0160632099011 -0.216596906827 -0.00778685597357)
(0.0126495796104 -0.0629982194459 0.00182280156061)
(0.00215669766251 -0.683516030658 0.170298935763)
(0.0134245235399 -0.516544648986 0.0132666038056)
(0.0323874195618 -0.580113896783 0.0234506975597)
(-0.00789156286021 -0.390480222861 -0.00957520723174)
(0.0194290550698 -0.322141671235 -0.0075233902642)
(0.0186760773503 -0.743639602566 0.211131417232)
(0.0503833951873 -0.726012840267 0.0521356468431)
(0.0363413505468 -0.607613159812 0.0308345598088)
(0.0187924215915 -0.306531273733 -0.0388611520044)
(0.0235972275366 -0.311785713821 -0.011631054432)
(0.0366057140512 -0.529559666385 -0.0165164924427)
(0.0108510943108 -0.653519027697 0.138596755244)
(0.0138086370774 -0.695319560955 0.162833347886)
(0.0230147515499 -0.498791042284 0.00980868179084)
(0.0245252440545 -0.707004609466 0.150410508817)
(0.0251186468989 -0.46632739851 0.00203282257148)
(0.0332842772238 -0.566681038237 0.0195085825173)
(0.0605575913383 -0.525111332624 -0.0506566510005)
(0.0559997234223 -0.547204768236 0.0143465285623)
(0.0699416363764 -0.803151197505 0.179322590333)
(0.0814572662605 -0.850543169973 0.215687405034)
(0.0540478926663 -0.406993987571 -0.0132996046567)
(0.10838649961 -0.588109227259 -0.0301395895269)
(0.0591557981772 -0.787706766622 0.181168900219)
(-0.0183976304404 -0.172676814987 -0.0341359772438)
(0.0110935282437 -0.0721435770617 -0.0195059343549)
(0.00601964821782 -0.201859494514 -0.0136481630298)
(-0.00500995272324 -0.200732919852 -0.0341144068856)
(-0.0260454496904 -0.340119043169 -0.0267337871154)
(0.0110936328601 -0.300141531697 -0.00970098167093)
(0.0410882993299 -0.508530267485 -0.0423733064825)
(0.0211932186422 -0.663260916227 0.125719991278)
(0.0461842985517 -0.73211167222 0.127226987831)
(0.0431305002608 -0.373892121276 -0.0643226241572)
(0.0574721027065 -0.385231367248 -0.0266201469284)
(0.0367979412454 -0.719020596783 0.136679674299)
(0.0255850926346 -0.453239900704 -0.00670572696494)
(0.0461690835062 -0.555859897165 -0.0234922737004)
(0.0312179623891 -0.75659440782 0.205147716769)
(0.0637982453159 -0.827475984654 0.213604465234)
(0.0519493543822 -0.713954085213 0.0301766728613)
(0.0999879537713 -0.619237008534 -0.0654696084365)
(0.0436007043456 -0.770936003414 0.192471912391)
(0.0365307599789 -0.595433514783 0.0242851328583)
(-0.00706004045722 -0.217487681037 -0.0268739556876)
(0.023979829884 -0.27499489007 -0.0220019082835)
(0.0123137785888 -0.219214612694 -0.00962594086494)
(0.0168909625522 -0.289479785698 -0.00889700519721)
(0.00182593562773 -0.247313741301 -0.00743794111091)
(-0.0165020330058 -0.408520118773 0.0388065566581)
(-0.03094195122 -0.38175967916 0.0483034840694)
(0.000212076930511 -0.231518629802 -0.000380729372799)
(-0.0236959258618 -0.409316783244 0.04787909816)
(0.0066993863901 -0.109723907088 -0.00628310193544)
(0.0303446947142 -0.1851080756 0.0351407863978)
(0.0402971926374 -0.219174402944 0.00939238686569)
(0.0035501745677 -0.0780567418166 -0.0114879620713)
(0.00855683102461 -0.120618581375 -0.00346034906463)
(0.0301549663169 -0.187604888607 -0.0115029379982)
(0.0398373863862 -0.222829605913 -0.0162418258039)
(-0.00330541275826 -0.169510987296 -0.0134037200933)
(0.0388685830133 -0.218766577029 -0.000742733666065)
(0.00836653830465 -0.121512500473 -0.00106149141072)
(0.0113237994749 -0.149891685525 -0.0105310599753)
(0.00289036656615 -0.261647784594 -0.00565189069395)
(0.00641754227566 -0.305965003126 -0.00328756263055)
(-0.0140802322326 -0.463425542577 0.0497995974351)
(-0.0282758634962 -0.438017141587 0.0648476453491)
(0.00924065076363 -0.271014267468 -0.0199591879901)
(-0.0216736920206 -0.439281918178 0.0564629956566)
(0.00323045857074 -0.28660610076 -0.000741225101805)
(0.00639748421721 -0.111520259174 -0.00472479341857)
(0.0438379595798 -0.234575691093 -0.0129846149012)
(0.042340885954 -0.226437562196 0.00234445432729)
(0.008044112808 -0.112729441137 -0.00254708797331)
(0.00392763082525 -0.250650745845 -0.0108704348574)
(-0.0081084714787 -0.440062171967 0.0378226537447)
(-0.00609342724399 -0.465616282306 0.0391232433486)
(0.0141043949019 -0.249975877985 -0.0304462400485)
(-0.0148111221629 -0.440413082104 0.0455779636919)
(0.00106499838316 -0.257592525345 -0.00358200239586)
(-0.0367351202629 -0.379030563939 0.0581905041326)
(-0.0236999302126 -0.267639710083 -0.000689717027236)
(-0.0376835260053 -0.406865567595 0.06529246473)
(-0.00171558334003 -0.245742946528 -0.00155052994736)
(-0.030050086064 -0.408128063178 0.0583533783214)
(-0.00481358087934 -0.279959789237 0.000748706002134)
(-0.0155036510179 -0.214601127199 0.00319241699095)
(-0.0394505540993 -0.356009298929 0.0454060305741)
(-0.0391376620684 -0.336804575424 0.0462398226656)
(-0.0455875389026 -0.337283888891 0.0515398532488)
(-0.00596904447738 -0.225119096642 0.00226917037362)
(-0.00246704629983 -0.136226130025 -0.00999782304136)
(0.0364503679335 -0.135618331195 -0.0062945462379)
(0.0390901145414 -0.219738730102 -0.0227910298667)
(-0.0069173826277 -0.171550709232 -0.00975184958693)
(0.0403933360888 -0.194000949363 -0.0362402160744)
(0.00779213621265 -0.121866109533 -0.00623811869531)
(-0.0136376828234 -0.168028208171 -0.00180968228808)
(0.00354761969496 -0.118643769244 -0.0101656812026)
(0.0428017321474 -0.233164368178 -0.0191208523306)
(0.0408769203286 -0.214952809212 -0.0324652186128)
(0.00837917769357 -0.112973102704 -0.00435557227594)
(-0.0283283182514 -0.259006837622 0.0123279601025)
(-0.0448008242117 -0.35272269078 0.0513656395456)
(-0.0559788559351 -0.331698729054 0.060917650286)
(-0.0317892252516 -0.283169943955 0.0138999109685)
(-0.0503834545902 -0.333823281439 0.0562835916468)
(-0.0185532495843 -0.273977409593 0.00986578761336)
(-0.0374761159626 -0.268143934863 0.018664694482)
(-0.0458554665566 -0.313806937052 0.0503521453736)
(-0.0102235672564 -0.233418929244 -0.00345522960319)
(0.0234392361324 -0.116848265269 -0.00812918429235)
(0.0180973903129 -0.0897096719536 -0.00124788059988)
(-0.0112265381612 -0.274107288377 -0.00102005987926)
(-0.0163840058915 -0.257796749679 0.00358661710683)
(0.0267385872853 -0.111196736774 -0.00277794046568)
(-0.00253669016084 -0.23741053787 -0.0171846001378)
(-0.0103546247409 -0.220562445845 -0.00542002901012)
(0.0285331549901 -0.171266741233 -0.0166411780531)
(0.0241388154608 -0.113907586039 0.0011768143359)
(-0.00833778901606 -0.182638709443 -0.00921348295769)
(0.0298477985019 -0.119201262559 -0.0052222465797)
(0.00608062969006 -0.172180205828 -0.02317337204)
(-0.0154613950542 -0.208199708854 0.001420023518)
(-0.0292186634641 -0.32630579646 0.00711709962845)
(0.00539495762004 -0.316250589765 -0.00148474623547)
(-0.0367904483761 -0.456232934558 0.0764861733656)
(-0.0355494434644 -0.434124533163 0.0741617577384)
(-0.0110103938415 -0.34227110396 -0.000453849306228)
(-0.00135534183724 -0.301797052359 -0.0023275716568)
(-0.0446515044677 -0.431587620905 0.0820087452637)
(-0.0122727881755 -0.228904159216 -0.00131887517601)
(-0.031082211792 -0.237201811101 0.00622394440916)
(0.0148648820107 -0.0872662607359 -0.00237410291659)
(0.019056436635 -0.10522914825 0.00040009522193)
(-0.0190624144202 -0.252580964586 0.00376940266794)
(0.0259785453963 -0.110567845047 -0.0021733109469)
(-0.017588924224 -0.21480105178 0.00327640659179)
(-0.03754570879 -0.366815647247 0.026369661175)
(-0.0564356736028 -0.424742489595 0.0902538533765)
(-0.0382954201066 -0.39606027901 0.0289526930176)
(-0.0436657459786 -0.450865581522 0.08190379415)
(-0.0440079368712 -0.373456188121 0.0341635535586)
(-0.029706001434 -0.387962109908 0.0200007169829)
(-0.0506703159064 -0.427788501245 0.0861593983573)
(-0.0365245614756 -0.336459780439 0.0232863903077)
(-0.0564885365729 -0.373085280955 0.0745945055395)
(-0.0337696627148 -0.306848677192 0.0172135187073)
(-0.0446912279667 -0.402699181827 0.0711971648605)
(-0.0227535347409 -0.326517677517 0.0142073615619)
(-0.0411758123347 -0.315025661397 0.0256090515171)
(-0.0517342616779 -0.40084848004 0.0785838859851)
(-0.0404205441106 -0.239292598164 0.0105073235603)
(-0.0487936331915 -0.222396964595 0.0154183282785)
(-0.0238298041801 -0.192784012348 0.00447110330988)
(0.0307307258886 -0.127185758844 -0.0036154870646)
(0.0217410028485 -0.112188657692 0.00454581763118)
(-0.0107636581001 -0.181766012525 -0.0056408322836)
(0.0123264462263 -0.0961160714114 -0.00570260211734)
(-0.015710110177 -0.174409040342 0.000716150370707)
(-0.0173074403082 -0.204058838823 0.00238387266855)
(-0.0289946671274 -0.199349784445 0.00469107749185)
(-0.0352393078414 -0.232772283343 0.00731159608967)
(0.0163903624755 -0.102007830866 0.00284419775397)
(0.0058184869483 -0.0798384422413 -0.00723123194612)
(-0.0199626034048 -0.210637490202 0.00368920151825)
(-0.0448836750432 -0.217818181029 0.0123272235789)
(0.101083385826 -0.402670417645 0.107860469085)
(0.141790986844 -0.287824916498 0.153919749657)
(0.0248808299671 -0.0870066042154 0.0854805043983)
(0.00493027194945 -0.0513062630498 -0.0102370715951)
(0.108512865188 -0.119781977089 0.0908831409488)
(0.00336983785474 -0.0930349775567 -0.00378395069543)
(0.131277515443 -0.246444207729 0.100180330499)
(0.019977879869 -0.0499882073215 -0.00815522160904)
(0.0229193233271 -0.0541035895044 -0.000746116176303)
(0.0191919802734 -0.03700262123 -0.00197814019684)
(0.0120700806322 -0.0545936796607 -0.00780677951972)
(0.0210409090034 -0.0519382726237 -0.00134298017145)
(0.0119111472789 -0.0784665408615 -0.00431444874453)
(0.0224157039705 -0.0584335751226 -0.000540918865955)
(0.0146861619177 -0.0414933731465 -0.0106419506658)
(0.0423396452381 -0.249114873904 0.0267439751638)
(0.0282331485934 -0.166108199693 0.0401716204309)
(0.0157478269337 -0.184937575195 0.07239135688)
(0.0156794133566 -0.125308502871 0.104517348802)
(0.011959018967 -0.13688336143 0.090447596569)
(0.0290771945036 -0.137600261383 0.0467146283813)
(0.0125961431839 -0.149510984947 0.0827886880964)
(0.0192119146292 -0.0338942976941 -0.00114845122129)
(0.0574064168757 -0.251663194903 0.0218164028341)
(0.018126828701 -0.0460018354978 -0.00849253299335)
(0.0118512566635 -0.0633374767172 -0.0572264876809)
(-0.0089517126506 -0.0649636401362 -0.0583163838916)
(0.0622089110811 -0.264548498999 0.0291390066212)
(0.0393861282069 -0.198633846595 -0.0075139207471)
(0.0371110813693 -0.206539425158 -0.00375719083021)
(0.0811425693201 -0.385222162724 0.0479356226548)
(0.0682174754569 -0.380838394781 0.0110310423401)
(0.10406180167 -0.541433875081 0.0383063741808)
(0.0768411471072 -0.4013719407 0.0210130052487)
(0.109021573845 -0.553935295074 0.0445647347409)
(0.107425496993 -0.558083789775 0.0204919460683)
(0.101444431318 -0.550899681961 0.0146942056139)
(0.05574678031 -0.323652546777 0.0118065387025)
(0.0621668018597 -0.358495121679 0.0018289794013)
(0.099347454243 -0.533888867965 0.03080752645)
(0.0589890944515 -0.337158050196 -0.00128470898609)
(0.0955405284574 -0.528702037263 0.0255911357172)
(0.0919982335306 -0.529087650461 0.00696845321986)
(0.0962497286556 -0.541016313498 0.00916674161847)
(0.0315913735397 -0.213925369109 -0.0226417777755)
(0.0850576432233 -0.494497645232 0.0131603804391)
(0.0846309144597 -0.501052347189 -0.000998316808257)
(0.0337066009161 -0.205663459859 -0.0279365956992)
(0.0839250735154 -0.503098271588 -0.0384975582126)
(0.0848961163763 -0.503801339238 -0.0240873967002)
(0.0164879475098 -0.0546166471145 -0.0199207969639)
(-0.0089194159352 -0.0821618853239 -0.0504003222322)
(0.0694793780225 -0.290913484268 0.0305401894648)
(-0.0120720109699 -0.0652343175213 -0.0537412238134)
(0.0660400323771 -0.280267891558 0.0264634911616)
(0.0390100885911 -0.218864739581 -0.00246477779653)
(0.0412581763962 -0.227101259332 0.000887816659285)
(-0.0052362098169 -0.0631129382333 -0.0675205859132)
(-0.00583578262016 -0.12099929556 0.152983170419)
(-0.000188407940708 -0.144733006363 0.0156768087362)
(-0.0197409326368 -0.0636201969974 -0.0358296141641)
(0.0122196425973 -0.159822905434 -0.0323598401692)
(0.0107793663896 -0.160497624855 -0.0199027533064)
(-0.0022307325463 -0.149154087115 0.0423146886103)
(0.0853950022502 -0.407126675823 0.0613625979079)
(0.0912401572347 -0.434399778475 0.0428889879477)
(0.121956070362 -0.588184040522 0.056912682503)
(0.0840200911623 -0.421754527429 0.0324623966456)
(0.114354633098 -0.573740675627 0.0475589049549)
(0.112012047979 -0.566443913069 0.0255299079531)
(0.117139071214 -0.575904502012 0.0319192421954)
(0.069363558487 -0.390537845744 -0.0111207144251)
(0.0752094623413 -0.414500501591 -0.0186094211084)
(0.0758826278369 -0.411510848583 -0.00331652256289)
(0.103189507069 -0.555305329063 -0.00432123078817)
(0.0986338449342 -0.55781592957 -0.0365519839386)
(0.101514326975 -0.560509272289 -0.0333595436022)
(0.100439685674 -0.549575796198 -0.00871660510793)