/*--------------------------------*- C++ -*----------------------------------*\
| =========                 |                                                 |
| \\      /  F ield         | OpenFOAM: The Open Source CFD Toolbox           |
|  \\    /   O peration     | Version:  2406                                  |
|   \\  /    A nd           | Website:  www.openfoam.com                      |
|    \\/     M anipulation  |                                                 |
\*---------------------------------------------------------------------------*/
FoamFile
{
    version     2.0;
    format      ascii;
    arch        "LSB;label=32;scalar=64";
    class       volVectorField;
    location    "0.01";
    object      U_0;
}
// * * * * * * * * * * * * * * * * * * * * * * * * * * * * * * * * * * * * * //

dimensions      [0 1 -1 0 0 0 0];

internalField   nonuniform List<vector> 
29768
(
(0.0176084707869 -0.0358494398425 -0.00208281224678)
(0.0694195670146 -0.366319715222 0.0351673245786)
(0.0607372306251 -0.346162172071 0.0219872004282)
(0.0908784160075 -0.416559918344 0.732922979929)
(0.00446068585359 -0.120716552931 0.13301338005)
(0.0356145710442 -0.265405550672 -0.0151714446678)
(0.0428831901478 -0.1829581383 -0.0354993302648)
(0.00770144685159 -0.0904982157898 -0.0363876296181)
(-0.00973517611496 -0.102829998197 0.0966804349446)
(0.0101784857066 -0.175092549958 0.269859172911)
(0.0914923618505 -0.428533984395 0.0763545297028)
(0.0698347345439 -0.393675927456 -0.0249185330964)
(0.0893364252698 -0.452731972422 -0.00840020522298)
(0.0740890469258 -0.390200740763 -0.0368720834222)
(0.0873050671891 -0.45027455472 -0.0299749301769)
(0.0434339847624 -0.286688071506 -0.0059054075702)
(0.0667778418715 -0.370960169757 -0.0311265253992)
(0.0402419451086 -0.209635294166 -0.0367312821993)
(0.0253812798549 -0.153859880311 0.020676146293)
(0.184072981315 -0.682931563548 1.08284972578)
(0.203958491394 -0.671269496456 1.09723138515)
(0.0222764040214 -0.149367256495 0.0164160730374)
(0.0262021512766 -0.167287911515 0.0130104005308)
(0.0235903202654 -0.160515138212 0.00854581197641)
(0.0717974180775 -0.340710768956 0.0688445976329)
(0.0187050065057 -0.0346616538196 -0.000126293336417)
(0.0180072803809 -0.0333249006112 -0.00156190579396)
(0.0579133968709 -0.324768851342 0.0533197293504)
(0.0189646181008 -0.0322025399501 4.7760501986e-05)
(-0.0242174991877 -0.584283981135 0.122335608015)
(0.0184398902615 -0.0869220642859 -0.00608255142502)
(-0.0501947276486 -0.478445446318 0.103997265384)
(-0.0766359671473 -0.364968160273 0.0907309164637)
(0.0177664943504 -0.0869235861921 -0.00221274684347)
(0.0148177674507 -0.0463896127878 -0.00472584394963)
(-0.0571649647822 -0.443444066493 0.0921685577331)
(0.0270851733178 -0.214740654007 0.012699978193)
(0.0214929047042 -0.0375466759786 0.010530201688)
(0.0502929281865 -0.648474322047 0.0724634687627)
(-0.0104853569251 -0.498984278779 0.0681433763272)
(0.0244936807893 -0.623621871051 0.0743847168231)
(0.0132674195217 -0.503233569385 0.0446531290378)
(0.099466432072 -0.895224439843 0.239064396368)
(0.0439077043381 -0.677712190022 0.109565648541)
(0.105021048515 -0.912406361569 0.617418395586)
(0.0573368919817 -0.848096353039 0.314410893092)
(-0.0122744388107 -0.128135821275 0.0978394440116)
(0.120063641261 -0.931848579433 0.644049814701)
(0.123227531053 -0.940876390497 0.327127550487)
(0.0166089924707 -0.198551270216 0.289166058849)
(0.159604062567 -0.971566331185 0.703171121549)
(0.0737101147714 -0.865433538664 0.310654415233)
(-0.0142202210844 -0.132862974988 0.113588412086)
(0.22868962296 -0.93339838637 0.851518043323)
(0.135300350333 -0.970065518416 0.34936371365)
(0.035970890089 -0.239095982584 0.297780502508)
(0.1797877912 -0.96495439765 0.747869793982)
(0.0678264769015 -0.333063079762 0.51697508603)
(-0.0142457475085 -0.59391716378 0.119163784768)
(0.0201429694738 -0.091473270685 -0.00669776934386)
(-0.0178074521874 -0.495837676857 0.0785892602782)
(0.0127436642148 -0.616295970519 0.0857079585761)
(-0.0426077988412 -0.483332203729 0.0985750089875)
(-0.0125944496751 -0.633468979473 0.154291316044)
(0.034027711935 -0.792183397282 0.233724459848)
(-3.10429177964e-07 -0.644789399043 0.148388347817)
(0.0876515979197 -0.871644551505 0.222228299883)
(0.0310143659114 -0.672108944056 0.112576986937)
(0.0484450951363 -0.808859176408 0.22722416312)
(-0.0249434917177 -0.381724646628 0.0410341410639)
(0.0365020432509 -0.172618700908 -0.0231070750152)
(-0.0206883881404 -0.462540946895 0.0593449158802)
(0.000704741203647 -0.466996174435 0.0350958428609)
(-0.0443699613444 -0.377797300202 0.0650237401593)
(-0.0331182223653 -0.355849791215 0.0400962092084)
(0.0397246203514 -0.165292773297 -0.0281046671138)
(-0.0512211672946 -0.351192357652 0.0574870353331)
(-0.0692099236248 -0.367662454984 0.084790112717)
(0.0202685335484 -0.0917454330785 -0.00224050481613)
(0.0363905783733 -0.148006569792 -0.015481103259)
(-0.0276104745076 -0.459496320007 0.0689906241676)
(0.00981090149273 -0.0647053789276 -0.00445630562792)
(-0.0501845716811 -0.447266038001 0.0867596792119)
(-0.0505059470336 -0.374946075955 0.0694535297678)
(-0.0821181815947 -0.339222416289 0.0856402407739)
(-0.0749828795657 -0.341599285977 0.0791927548679)
(0.0385386610472 -0.142941995512 -0.00544169050277)
(0.0107285910119 -0.0489555011692 -0.005070008709)
(-0.0566706711586 -0.348394269286 0.0637962281184)
(-0.0139235285078 -0.0700831963956 -0.0112180216619)
(-0.0100264248446 -0.0831799014002 0.0429340477657)
(-0.0179452156752 -0.073183730738 0.00655666114976)
(0.0316269163396 -0.225660327531 0.0177356930118)
(0.117746964924 -0.896753909942 0.729899695992)
(0.146203131468 -0.729668446717 1.01523565643)
(0.125958694966 -0.825908074714 0.905038708024)
(0.0700228339031 -0.390618488654 0.46917720545)
(0.130778045679 -0.692615573166 0.9679867293)
(0.101501505523 -0.463761539906 0.982944535954)
(0.14091064843 -0.662390058519 0.984474953466)
(0.130909486135 -0.432677985434 0.993370513668)
(0.0309756543794 -0.164692079816 0.0368087962705)
(0.00966453765779 -0.144401885634 -0.00568186859281)
(0.0191537252765 -0.0751305146505 0.00912145060511)
(0.00131280788599 -0.137246617179 -0.0127001358996)
(-0.00181458333687 -0.0968573874772 -0.0119577515191)
(0.0273160117665 -0.0646214926719 0.0290073581316)
(0.134599644524 -0.905283782265 0.755554816263)
(0.190395232437 -0.696619984824 1.05098156097)
(0.15991097411 -0.795536210551 0.948211567337)
(0.0980718548544 -0.435074407323 0.640580726214)
(0.148499506793 -0.811120784614 0.930879257326)
(0.166595545888 -0.918349027618 0.80389909744)
(0.074965549439 -0.376763421794 0.505221421587)
(0.0493894136705 -0.168237462079 0.235151319711)
(0.0260953175626 -0.212989446855 0.225676416737)
(0.220145889121 -0.896995572435 0.911382801152)
(0.197941244708 -0.655436164646 1.12777915278)
(0.180226805362 -0.782524007594 0.971696899804)
(0.105179659906 -0.430360593572 0.625487803387)
(0.194247745743 -0.760930118747 0.989884814238)
(0.187620698621 -0.91977127669 0.842344055561)
(0.118752467103 -0.455819721382 0.768137153606)
(0.00103565455288 -0.168723717632 0.217653489549)
(0.0108554389013 -0.0374188957377 -0.041679122399)
(-0.0175795752729 -0.0649022441599 -0.048831220996)
(-0.00678357337571 -0.222224536439 0.212215852736)
(0.0174707915244 -0.193546457179 -0.0103339951826)
(0.019145861157 -0.127382330499 0.00453495704416)
(0.0126331988197 -0.154366856158 -0.00509565132241)
(0.0162647301942 -0.0797085113114 0.0103291639673)
(0.00521798477758 -0.155163809076 -0.00952224252092)
(0.011787646839 -0.211484613758 -0.0327184528857)
(0.0109297455624 -0.0859350994179 0.00766462156798)
(0.00776446589128 -0.127091272993 -0.0304097597556)
(0.00802246424061 -0.119748874909 -0.00438653048743)
(0.0309432374135 -0.181957359142 0.0272669954112)
(0.0287863118983 -0.187008197931 -0.00541500565549)
(0.0114364333348 -0.144261873088 -0.00476608235122)
(0.0374923398666 -0.213612908058 0.00586283542421)
(0.00273557352007 -0.105981509284 -0.00980346598883)
(0.0128962999893 -0.146712427771 -0.0075404579595)
(-0.00792573507053 -0.224685127933 -0.00721252942558)
(0.0213985758767 -0.129683509157 -0.00413915618135)
(0.0271462561797 -0.173918044451 -0.0102166869046)
(0.0135335901555 -0.15428988154 -0.00521155081944)
(0.0290949931942 -0.121681612575 -0.00706699901461)
(0.00535045372699 -0.217164115001 -0.0225442291635)
(0.0101339690426 -0.164271447178 -0.0169614221242)
(0.0194901399446 -0.0437247354555 -0.00314162449148)
(0.0195060055961 -0.036215353609 -0.00110713221867)
(0.0215163293132 -0.0489746390771 -0.0010414850406)
(0.0130633901045 -0.0564900121653 -0.0315867256724)
(0.019364174815 -0.0312428395044 4.0500907742e-05)
(0.013816373639 -0.0495467594873 -0.0200034164041)
(0.0483295621267 -0.305729093858 0.0438162823643)
(0.0285744012852 -0.18997818966 0.110563995616)
(0.0152889387851 -0.190090154195 0.0839866219206)
(0.0193149775945 -0.0319728242592 -0.000811598267993)
(-0.034088382723 -0.552796156578 0.123300088574)
(-0.0153974188482 -0.529497855278 0.0348010175327)
(-0.0262762337338 -0.491602817082 0.0387707127453)
(-0.0113096055778 -0.289461653531 0.000913993507972)
(0.0203012270863 -0.0669345104202 -0.0012972830182)
(-0.00793213545989 -0.30979046307 -0.00914124481172)
(0.0110759491035 -0.315459897086 -0.0548791780614)
(0.0211080728348 -0.0567417957418 -0.000534905810381)
(-0.00542537508455 -0.316322663289 -0.0145724690281)
(0.015280268325 -0.0826034601375 -0.000985331695966)
(-0.0130135339188 -0.282986215397 0.00154419804099)
(-0.0200417715698 -0.26633207083 0.00421677566156)
(-0.0370515606194 -0.244649861141 0.00904691242865)
(0.0122074661325 -0.0769474611233 -0.00281183987639)
(-0.0246330527883 -0.261107649312 0.00414175312358)
(0.0268192986553 -0.16227523807 0.0312510479175)
(0.0270425839034 -0.136742072371 0.0362850726567)
(0.0437899207149 -0.166327866438 -0.0272391476582)
(0.0566668470487 -0.307261984871 -0.03989358596)
(0.0425433378829 -0.193108773525 -0.042731063388)
(0.0319290542767 -0.225402295934 -0.0119329721382)
(0.0407667898353 -0.638944966424 0.0758991726617)
(0.0361889844717 -0.59053169302 0.0622716673367)
(0.030853430788 -0.588555279418 0.0689237808926)
(0.022275973717 -0.235292356254 -0.0141053135)
(0.0300838136163 -0.167846475983 0.0462727885662)
(0.00758807790399 -0.0555365633443 -0.0110262735398)
(0.0302978941881 -0.0696793979846 0.0413360487893)
(0.0335828326527 -0.252111076406 -0.0399936751556)
(0.0076569407476 -0.312892008727 -0.00473901793338)
(-0.00143060548979 -0.537478203683 0.0705102127766)
(-0.00266284973642 -0.500410167876 0.0575877777415)
(0.00902958950438 -0.540292966203 0.0585400338366)
(0.0132513711053 -0.335097660348 -0.020132438754)
(0.0124852278869 -0.270479734031 -0.028762437621)
(0.0160318584865 -0.0381467401023 0.00221257002305)
(0.00355272468374 -0.125224627603 -0.0149975112356)
(0.0352022532499 -0.246396886682 -0.0230938553285)
(0.0328112761306 -0.629831256109 0.0731680698)
(0.0122484392397 -0.582810795604 0.0763391379136)
(0.0394214078094 -0.328747808454 -0.0505650031454)
(0.0220755659364 -0.587033407551 0.0689166332275)
(0.0301913015209 -0.251406528685 -0.0119946322135)
(0.0177933987189 -0.340567019794 -0.0271381532839)
(0.0337243239375 -0.224781162765 -0.0177238390354)
(0.0227462888641 -0.543198619997 0.0483841021749)
(0.00672048975708 -0.503318546995 0.0469320665779)
(0.0180611307056 -0.541020816375 0.0518659664656)
(0.0206133780334 -0.244489910731 -0.044851346245)
(-0.00176258841541 -0.220297255688 -0.0473521229811)
(0.064259863262 -0.699169034873 0.102410449265)
(0.0955772965562 -0.793944577012 0.161458340281)
(0.0175623262117 -0.237936927764 -0.0184116024497)
(-0.0164325336617 -0.265127397637 -0.0487281060277)
(0.0154136023501 -0.528469433142 0.0010170242)
(0.14462681084 -0.927201219689 0.292820394105)
(0.0805091617278 -0.816125367828 0.185007658024)
(0.095945107393 -0.829475608187 0.182092920444)
(0.00628825046459 -0.130016367876 -0.0648535981507)
(0.0370451529836 -0.382155596274 -0.00833661696076)
(-0.0174519853683 -0.177646553595 -0.0646537352487)
(0.160631810023 -0.940255810069 0.30497240994)
(0.110589271101 -0.831775814663 0.191839512487)
(0.00181485261283 -0.27196654642 -0.035129886375)
(0.0535239100012 -0.684980588725 0.104383552702)
(0.0588500664185 -0.742725789288 0.133628813142)
(0.0471163927147 -0.325245602643 -0.0327447193495)
(0.0719895701374 -0.75311887502 0.129505091228)
(0.0263237255713 -0.256664176344 -0.012983626618)
(0.0438630690069 -0.357275059512 -0.0125853845629)
(-0.0312141981648 -0.427672283547 -0.0117449971154)
(-0.0891068970846 -0.695189751327 0.043444843075)
(0.0737710652078 -0.902330537436 0.389721385957)
(0.0570772930322 -0.781866597937 0.0701113407546)
(0.115285495431 -1.01418226548 0.176509323341)
(0.256394917992 -0.926173060961 0.727566160823)
(0.200842423861 -0.795562758198 0.185322602644)
(0.252463910864 -0.929379695838 0.397421990506)
(0.0629343702155 -0.63868142155 0.0368314922562)
(0.151313718831 -1.0041692671 0.469351506168)
(0.1107493655 -0.916689385595 0.317385899699)
(0.137514374665 -0.978647516848 0.443437463219)
(0.22303615274 -0.944591546391 0.458363594549)
(0.126235791819 -0.637251430164 0.013073962448)
(0.0287503545736 -0.306692968378 0.440676529425)
(0.000809017904314 -0.0444409540395 -0.048126049312)
(0.157002827184 -0.608574895639 0.711475317346)
(0.00933318050486 -0.166818105896 0.22250299833)
(0.176859398049 -0.726278412241 0.866564959248)
(0.0839423505758 -0.347725630913 0.451813447564)
(0.00170533461037 -0.0368689839235 -0.0493893844459)
(-0.0590235453432 -0.345721084356 -0.0382546508094)
(-0.0815913511615 -0.18784025797 -0.0350830504581)
(0.228561114659 -0.863550057151 0.190927605551)
(0.0946428025223 -0.926983003086 0.389141486849)
(0.092579872077 -0.890109390961 0.302597618239)
(0.0612821814626 -0.770073681933 0.038355726159)
(0.115870163803 -0.952649602777 0.400583228786)
(0.142890824023 -0.983044102847 0.0830887144823)
(0.12767425744 -0.656934835631 -0.0273428909605)
(0.0312959517959 -0.246958115433 0.31571157502)
(0.281410026522 -0.810421665295 0.772832856457)
(0.00282589047296 -0.155680909435 0.192012948262)
(0.193926316777 -0.698822725427 0.849802622273)
(0.243538520138 -0.366069130725 0.260828017702)
(0.00622988129136 -0.0284492990269 -0.0234659065597)
(0.226043031933 -0.429118402559 0.557433909345)
(0.00462733223653 -0.643393701649 0.0216781650539)
(0.163725383881 -0.959797525747 0.355744444895)
(0.176332458829 -1.03783756968 0.51450362961)
(0.260447573246 -0.919712798623 0.469088397304)
(0.202431792912 -0.983662152257 0.571458598968)
(0.0140611511128 -0.209507537915 0.279848553206)
(0.0186723774813 -0.0346032085518 -0.00577623467016)
(-0.0163493449586 -0.0736962156944 -0.0441741763839)
(0.0839319548825 -0.305778322809 0.445646199388)
(-0.0086651742912 -0.0606194546625 -0.0568083052652)
(0.160421677665 -0.605671150862 0.734692327517)
(0.0364686204828 -0.258863352955 0.366308928045)
(-0.0255392704472 -0.0828716287169 -0.0066956670133)
(0.0721850693312 -0.355599009771 0.433105269002)
(0.163952983117 -0.563178111052 0.767229314533)
(0.0171359475257 -0.415143526383 0.00317174103716)
(-0.00317280878397 -0.601804717898 0.110380325525)
(-0.0253025013315 -0.559309342261 0.120475532637)
(0.0109943040185 -0.480906502259 0.00447583630114)
(-0.0180082793879 -0.442939885821 0.00873010663237)
(-0.0137332261777 -0.566407293951 0.112049384023)
(0.0227570281856 -0.451672764859 0.00216794272886)
(0.0181075233525 -0.211015322245 -0.016887537314)
(0.0205984471026 -0.117219142882 -0.00275975909846)
(-0.00987587453151 -0.28017091879 -0.00279541181561)
(0.0202969662195 -0.0694354039166 -0.00157541147971)
(-0.00443514142179 -0.29587217297 -0.0174025840967)
(0.00134548500095 -0.234311200252 -0.0255060869749)
(0.0122386209636 -0.0828671935725 0.00579655947707)
(0.0103225595886 -0.378421103027 0.00483510777188)
(0.00720882354107 -0.322899786698 -0.00132464367896)
(-0.00977694629094 -0.533788741784 0.0818526793463)
(-0.0265144684588 -0.493088592878 0.0866578414551)
(0.0115870011793 -0.349233109728 -0.00946125843106)
(-0.0181827710318 -0.530192335503 0.0902297034769)
(-0.00368928632746 -0.349423614841 -0.00147117771176)
(0.0169091881885 -0.194721838236 -0.00702261100833)
(0.0142376219872 -0.0468124141207 0.00698746769153)
(0.00755258565286 -0.0972268342359 -0.015532815609)
(0.00330540555289 -0.151394566638 -0.0120684984833)
(0.0107375267752 -0.202071993648 -0.0101920662419)
(0.0110567730309 -0.0623132450477 0.000993036934891)
(0.0191271605387 -0.393246001842 0.00350088594368)
(0.00525503403914 -0.609929821248 0.0982617729326)
(0.00229746279644 -0.57906011511 0.0895568570927)
(0.0328640314017 -0.373748693763 -0.0445108161107)
(0.01435079239 -0.357946093084 -0.0144850134183)
(-0.00516275887781 -0.574625848648 0.100297628265)
(0.0229336006266 -0.438300297738 -0.00348886713185)
(-0.00508320855843 -0.441909361638 0.0218140854656)
(-0.0351591655306 -0.516963504489 0.105439086648)
(-0.0311441755264 -0.419809467989 0.0314268862692)
(-0.0343195525431 -0.48727918754 0.0925906966631)
(-0.0244621792652 -0.451146758033 0.0310436953425)
(-0.0262189228099 -0.522650058658 0.097572264955)
(-0.0202569953629 -0.409373241597 0.0202191123844)
(0.0196379966251 -0.211409795876 -0.00937027561486)
(0.021592891668 -0.280061332447 -0.0401500365277)
(0.0210804765528 -0.0577275211116 -0.00101630215152)
(-0.00087690469158 -0.298785188781 -0.0236138711204)
(0.015995563968 -0.216818423186 -0.00780236967005)
(0.0125450186429 -0.0631924962483 0.00186117365955)
(0.00222609032535 -0.684118618854 0.170481429574)
(0.0133862977516 -0.517140997123 0.0132919971872)
(0.0323721231196 -0.580823965594 0.0234851745274)
(-0.00801981946432 -0.391045356372 -0.00958472997442)
(0.0193605355961 -0.322559649558 -0.00753786090407)
(0.0187672216233 -0.744305856071 0.211380746932)
(0.0503901262373 -0.726961759794 0.0522320205808)
(0.0363303549411 -0.608369442437 0.0308821661442)
(0.0187394640636 -0.306895692 -0.038942675505)
(0.0235391982394 -0.312180485219 -0.0116563091259)
(0.0365859809818 -0.530245820005 -0.0165300245152)
(0.010918781393 -0.654117950554 0.138789169077)
(0.0138843352148 -0.695951035505 0.163028193365)
(0.0229833249066 -0.499380094285 0.00982058462558)
(0.0246070601361 -0.707666224954 0.150602076441)
(0.0250873797767 -0.466892411724 0.00203923145939)
(0.0332647767691 -0.567381637795 0.0195387649622)
(0.0605776798331 -0.525848397066 -0.0507202092343)
(0.0559945806631 -0.548092021031 0.0143880844594)
(0.0700622084391 -0.803962762586 0.179596921472)
(0.0815844840235 -0.851392933254 0.216004681481)
(0.0540421690741 -0.407596009297 -0.013326264017)
(0.108480255231 -0.589041061245 -0.0302018299913)
(0.0592724943937 -0.788478692398 0.181445063688)
(-0.0185394581665 -0.172832603374 -0.0342124577838)
(0.0110200071283 -0.0721275664325 -0.0195487703287)
(0.00593061708462 -0.202059096763 -0.0136757932751)
(-0.00513006390104 -0.200944127873 -0.0341899656635)
(-0.0262148679521 -0.34059799706 -0.0267825875588)
(0.0110062889737 -0.300521256878 -0.00971732133263)
(0.0410750317527 -0.509211287802 -0.0424241553023)
(0.0212658591172 -0.663889685504 0.125912746574)
(0.0462704161033 -0.732846961211 0.127406502232)
(0.0431256821395 -0.374377250678 -0.0644362913506)
(0.0574761728315 -0.385783685626 -0.026675224524)
(0.0368848543098 -0.719716596049 0.136873808966)
(0.025553213788 -0.453794258895 -0.00670918945506)
(0.0461623512349 -0.556606221459 -0.0235115008097)
(0.0313156370423 -0.757287579838 0.205418743541)
(0.063919868804 -0.828272933274 0.213910177636)
(0.0519540519406 -0.714905572379 0.0302471317894)
(0.100075240403 -0.620179769144 -0.0655683921907)
(0.0437069924427 -0.771666952485 0.192747849087)
(0.0365146145812 -0.596182213605 0.0243260936678)
(-0.00718241768582 -0.217721890054 -0.0269312702587)
(0.0239291271896 -0.275315589033 -0.0220495800929)
(0.0122365201274 -0.219443121483 -0.00964485827354)
(0.0168170573786 -0.289836044946 -0.00891361409489)
(0.00180527462616 -0.247533731526 -0.00745749896191)
(-0.016464048704 -0.40886489669 0.0388336563142)
(-0.0309033048741 -0.382066509 0.0483441904715)
(0.000200957127559 -0.231713209095 -0.000392789641735)
(-0.0236561503183 -0.409653616585 0.0479215758416)
(0.00664329487677 -0.109756273366 -0.00629688624602)
(0.0302190415378 -0.18603625629 0.035396728233)
(0.0402338979539 -0.220270957942 0.0094364235551)
(0.00348106272869 -0.0780442847377 -0.0115123006453)
(0.00850982371553 -0.120667402631 -0.00346839076838)
(0.0300311017238 -0.18852453466 -0.0115768927608)
(0.0397797629361 -0.223883697649 -0.0163800142493)
(-0.0033458385692 -0.169621781621 -0.0134335692252)
(0.038788994168 -0.219860520995 -0.000767190013131)
(0.00833083838198 -0.121561593756 -0.00106925812655)
(0.011289219395 -0.149986642818 -0.0105552183985)
(0.00286938126499 -0.261888731364 -0.00566716290006)
(0.00639392976082 -0.306273652025 -0.00329490095175)
(-0.0140364324401 -0.463823222318 0.0498662081248)
(-0.028236164748 -0.438373468697 0.0649317214816)
(0.00921569953646 -0.271284091939 -0.0199933244055)
(-0.0216308731703 -0.439648734167 0.0565341673287)
(0.00321420787686 -0.286880595028 -0.000749510888775)
(0.00634442669089 -0.111554527669 -0.00473519970234)
(0.0438067477421 -0.235678815267 -0.0131118453891)
(0.0422907830373 -0.227560269322 0.00233150675928)
(0.00800417115861 -0.112764937654 -0.0025538254953)
(0.00390533353037 -0.250878937286 -0.0108948585719)
(-0.00806571270085 -0.440446996265 0.0378574322962)
(-0.00604748728248 -0.466026541106 0.0391700647629)
(0.0140845634409 -0.250222021134 -0.0305012976599)
(-0.0147674690683 -0.440789786939 0.0456299120949)
(0.00104625928317 -0.257825532285 -0.00359557051037)
(-0.0366961020146 -0.379325749438 0.0582447732114)
(-0.0237303011268 -0.267869281126 -0.000698711549237)
(-0.0376468998813 -0.407182383689 0.0653642321051)
(-0.00172631304455 -0.245956319165 -0.00156142251175)
(-0.0300101282688 -0.408455091999 0.0584129746186)
(-0.00483456749097 -0.280221459037 0.00073847124352)
(-0.0155187206688 -0.214764345016 0.00317299785196)
(-0.0394164847976 -0.356286287419 0.0454397687517)
(-0.0391079469263 -0.337069308136 0.0462673716367)
(-0.0455554059548 -0.337541083535 0.051575934111)
(-0.00598311047234 -0.22530272975 0.00225710133367)
(-0.00249970438215 -0.13628808648 -0.0100296768767)
(0.0364357700063 -0.136120426449 -0.00632631107626)
(0.0390395140184 -0.220745000731 -0.0229774677723)
(-0.00695886537952 -0.171660065067 -0.00977686191025)
(0.0403902647833 -0.194776912697 -0.0364817056152)
(0.00775877523017 -0.121914814435 -0.0062549456696)
(-0.0136759234482 -0.168125879988 -0.00182241295847)
(0.00351720328863 -0.118687037261 -0.0101915618807)
(0.0427728838489 -0.234227748846 -0.0192935569812)
(0.0408717155071 -0.215821632471 -0.03270141978)
(0.00834326380517 -0.113009001944 -0.00436446149162)
(-0.0283428757026 -0.259210699602 0.0123244719751)
(-0.0447666469093 -0.352988454907 0.0514063339812)
(-0.0559491742556 -0.331939313045 0.0609685988477)
(-0.0318098069798 -0.283404911534 0.0139089955384)
(-0.0503521489147 -0.33407083249 0.0563256450276)
(-0.0185611806678 -0.27420885589 0.00986542046755)
(-0.0374954388692 -0.268352330325 0.0186746073297)
(-0.0458294621267 -0.314044378951 0.0503751430996)
(-0.0102861548593 -0.233620849269 -0.0034627466368)
(0.0233764998414 -0.117352433868 -0.00817118738187)
(0.0180349382895 -0.0900344541488 -0.00126135443463)
(-0.0112987427473 -0.274370215047 -0.00102427490671)
(-0.0164497374135 -0.258028235172 0.00358546513792)
(0.0266950928755 -0.111647361202 -0.00278885922822)
(-0.002601540665 -0.23763312188 -0.0172129307787)
(-0.0104138204962 -0.22074470112 -0.00543154325161)
(0.0284171143441 -0.172079014258 -0.0167390981322)
(0.0240659333537 -0.114350936039 0.00118400840064)
(-0.00838357093378 -0.182764518095 -0.00923460896039)
(0.0298097618854 -0.119685766531 -0.00524862985956)
(0.00604138544076 -0.172304138852 -0.0232219969659)
(-0.0155125237024 -0.208356958391 0.00141738663281)
(-0.0292703105091 -0.326611053139 0.00713035867451)
(0.00537110426014 -0.316572859572 -0.001490028955)
(-0.0367617780265 -0.456592371774 0.0765879986704)
(-0.0355144159352 -0.434468713152 0.0742568844226)
(-0.0110559820038 -0.342616436487 -0.000459484099523)
(-0.00137755341913 -0.302089115384 -0.00233250119721)
(-0.0446243321581 -0.431919602198 0.0821126522219)
(-0.0123330867576 -0.229096622551 -0.00132401928825)
(-0.0311505064689 -0.237394934609 0.0062225149519)
(0.0147758147429 -0.0875694782184 -0.00239877573428)
(0.0189649866028 -0.105627512347 0.000399147558198)
(-0.019127250126 -0.252803383903 0.00376703535776)
(0.0259298245593 -0.111008544607 -0.00218687592982)
(-0.0176416559945 -0.214967224651 0.0032755852473)
(-0.0375923157671 -0.367147978886 0.0264070112236)
(-0.0564216565613 -0.425059563229 0.0903551520926)
(-0.0383494822261 -0.396425837994 0.0289898263442)
(-0.0436428666512 -0.451213356942 0.0820052009485)
(-0.0440572089707 -0.373786643619 0.0342042879775)
(-0.0297553779828 -0.388331075693 0.0200308354404)
(-0.0506480492088 -0.428112081583 0.086264015926)
(-0.0365628494915 -0.336758930079 0.0233187899989)
(-0.0564634094087 -0.373356464932 0.0746778207022)
(-0.033797925174 -0.30711020041 0.0172340211352)
(-0.0446591677352 -0.403004840265 0.0712776811693)
(-0.0227784891789 -0.326813903207 0.0142242076817)
(-0.0412076427056 -0.315289693203 0.0256401197483)
(-0.0517080708921 -0.401145351917 0.0786740624651)
(-0.0404951870742 -0.239484264689 0.0105104219998)
(-0.048864454253 -0.222559376821 0.0154248486144)
(-0.0238737016954 -0.192914227227 0.00446619107934)
(0.030688067403 -0.127664432368 -0.00364347899136)
(0.0216578054486 -0.112625181144 0.00455052948302)
(-0.010808363308 -0.181887337132 -0.00565671000299)
(0.0122056887005 -0.0964482744632 -0.00574621745494)
(-0.0157486227341 -0.174514661866 0.000708313778379)
(-0.0173563496218 -0.204208886675 0.00238158750389)
(-0.0290448723509 -0.199487785845 0.00468493738363)
(-0.0353089829518 -0.232957150046 0.00731133710854)
(0.0162862129537 -0.102388679651 0.00283882916669)
(0.00567064186778 -0.0800720982429 -0.00728381206004)
(-0.0200138287876 -0.210796720706 0.00368765769138)
(-0.0449516314613 -0.217975861081 0.0123313740141)
(0.101272429007 -0.404655044451 0.108409947868)
(0.142528665635 -0.289439134768 0.154925725461)
(0.0248412774921 -0.087316437155 0.0861336030473)
(0.0047227628941 -0.0512638529681 -0.0103074013152)
(0.1091426966 -0.120322753665 0.0915355435017)
(0.00311827898309 -0.0933050188743 -0.00380879158712)
(0.132057834742 -0.247868917235 0.100933602152)
(0.0197434302202 -0.0498730119921 -0.00808779181353)
(0.022748056658 -0.0540722519103 -0.000731464874268)
(0.0191054509637 -0.0369138848924 -0.00196805818044)
(0.0118986054712 -0.0545708153813 -0.00785688446399)
(0.0208886956562 -0.0519001177325 -0.00134336041309)
(0.011707613409 -0.0786191023048 -0.00434420425165)
(0.0222522671575 -0.0584337292686 -0.000538242332325)
(0.0145874988356 -0.0413651548011 -0.0106341853736)
(0.0423761403117 -0.250421445906 0.0268866125772)
(0.0282169260323 -0.167003553371 0.0404445590003)
(0.0156202759958 -0.185935541155 0.0728853356682)
(0.0155520891246 -0.125918067899 0.105311116743)
(0.0117952055199 -0.137570333659 0.0911376967838)
(0.0290589121311 -0.138321776366 0.0470799779934)
(0.0124398299346 -0.150300813128 0.0834190221042)
(0.0191429816972 -0.0338139904906 -0.00113520998646)
(0.0573650643297 -0.252576973938 0.0222408200793)
(0.0178873519312 -0.0458675555479 -0.00843967499925)
(0.0115975491704 -0.0632229546812 -0.0572603412949)
(-0.00934444205269 -0.0648518349164 -0.0582552997936)
(0.0621316903171 -0.265487110189 0.029632794475)
(0.0391884748206 -0.199200846165 -0.00719414978791)
(0.0368683492767 -0.207121847534 -0.0033836616573)
(0.0811748237565 -0.386980517032 0.0481637320826)
(0.0681644451198 -0.38251959539 0.0110579360651)
(0.10399854027 -0.543171404784 0.0382837511526)
(0.0768254551754 -0.403125619664 0.0210565216516)
(0.109001584639 -0.55571861886 0.044500224252)
(0.107349851911 -0.559712964095 0.0202628713193)
(0.101344979496 -0.552496385712 0.0145194693109)
(0.0557658149365 -0.325179241182 0.0119123415398)
(0.0621172773035 -0.360075528448 0.00186350402428)
(0.099280809069 -0.535587450025 0.0307988383505)
(0.0589809500024 -0.33866663366 -0.00126057550844)
(0.0955153962863 -0.530393510137 0.0255808292572)
(0.0919480872576 -0.53064456461 0.00686303726716)
(0.0961583429906 -0.542586198755 0.00903433687545)
(0.0316214919839 -0.214898521136 -0.0227758189109)
(0.0852803918647 -0.49608148569 0.0131113126749)
(0.0847811111618 -0.502521596209 -0.00114561016309)
(0.0337400027645 -0.206569741691 -0.0281106516187)
(0.0839384696412 -0.504287043172 -0.0387851065178)
(0.0849732099308 -0.505123727638 -0.0243707125744)
(0.0162059107617 -0.0544915983396 -0.0198250808206)
(-0.00937506476321 -0.0820928756876 -0.0503431033392)
(0.0693675908769 -0.291974697785 0.0311309661061)
(-0.0124882190317 -0.0651225248354 -0.0536423040418)
(0.06594687137 -0.281292199078 0.0270037691082)
(0.0387585941662 -0.219509537788 -0.00206117242678)
(0.0410030023986 -0.227790855123 0.00131437183847)
(-0.00554475626026 -0.0630069370074 -0.0675533006953)
(-0.00614126840357 -0.121092353446 0.153919895549)
(-0.000544854014158 -0.144912696579 0.0160100983492)
(-0.0201547333102 -0.0635091147485 -0.0356417352685)
(0.0119017464862 -0.160118113228 -0.0321789900242)
(0.0104226992084 -0.160783645139 -0.0196273764297)
(-0.00261379303562 -0.149354074153 0.042827336578)
(0.0854575671266 -0.408950017439 0.0616177370639)
(0.0913524199085 -0.436199852277 0.0429618740832)
(0.122048887285 -0.59000456106 0.0567522614733)
(0.0840618695841 -0.423566571108 0.0325050034685)
(0.114373110438 -0.575558933673 0.0474095922783)
(0.111964134824 -0.568096689561 0.0252365649599)
(0.117156349366 -0.57753451442 0.0315882249185)
(0.0693048567409 -0.39214974868 -0.0112482601661)
(0.0751685584586 -0.416062073029 -0.01883387423)
(0.0758527079071 -0.413181514589 -0.00345329605167)
(0.103086953133 -0.556752073503 -0.00476296335553)
(0.0984828360149 -0.559068477327 -0.0370530691862)
(0.101376417945 -0.561782450708 -0.0339206980876)
(0.100312452825 -0.551002077948 -0.00909616620291)