/*--------------------------------*- C++ -*----------------------------------*\
| =========                 |                                                 |
| \\      /  F ield         | OpenFOAM: The Open Source CFD Toolbox           |
|  \\    /   O peration     | Version:  2406                                  |
|   \\  /    A nd           | Website:  www.openfoam.com                      |
|    \\/     M anipulation  |                                                 |
\*---------------------------------------------------------------------------*/
FoamFile
{
    version     2.0;
    format      ascii;
    arch        "LSB;label=32;scalar=64";
    class       volScalarField::Internal;
    location    "0.01";
    object      V0;
}
// * * * * * * * * * * * * * * * * * * * * * * * * * * * * * * * * * * * * * //

dimensions      [0 3 0 0 0 0 0];

value           nonuniform List<scalar> 
29768
(
4.516023456e-13
3.64225599528e-12
3.64225599528e-12
2.5007886449e-11
3.64225599528e-12
3.64225599528e-12
4.67828652945e-13
3.6419762736e-12
3.64225599528e-12
3.23483426405e-12
3.64225599528e-12
3.6419762736e-12
3.6419762736e-12
3.64225599528e-12
3.64225599528e-12
3.64225599528e-12
3.6419762736e-12
4.6737553527e-13
4.5525551022e-13
2.4392199485e-11
2.52576628056e-11
4.5525551022e-13
4.5525551022e-13
4.5525551022e-13
3.64225599528e-12
4.5167171616e-13
4.516023456e-13
3.64225599528e-12
4.5167171616e-13
3.50465831589e-12
4.5161082162e-13
2.98851497585e-12
2.75183412312e-12
4.5161082162e-13
3.9138318668e-13
2.88897569224e-12
4.552470342e-13
4.16986352131e-13
3.64227135986e-12
3.64232380865e-12
3.64232380865e-12
3.64232380865e-12
3.64232380865e-12
3.64232380865e-12
3.2066256526e-12
3.64204408176e-12
4.5525551022e-13
3.15275453771e-12
3.64204408176e-12
4.5525551022e-13
3.12719682442e-12
3.64204408176e-12
4.5525551022e-13
2.65355764125e-12
3.64204408176e-12
3.64232380865e-12
3.08854378067e-12
3.64232380865e-12
3.64232380865e-12
4.5161082162e-13
3.64232380865e-12
3.64232380865e-12
3.17807084519e-12
3.64232380865e-12
3.64232380865e-12
3.64232380865e-12
3.64232380865e-12
3.64232380865e-12
3.64232380865e-12
3.64204408176e-12
4.65793774487e-13
3.64232380865e-12
3.64232380865e-12
3.64204408176e-12
3.64232380865e-12
4.68049786378e-13
3.38851868129e-12
2.74305686321e-12
4.5161082162e-13
4.52522193524e-13
3.64232380865e-12
4.18009340091e-13
3.07028606758e-12
3.36071154026e-12
2.73284952609e-12
2.71327043157e-12
4.55921724581e-13
3.95258348765e-13
3.12323166562e-12
4.552470342e-13
3.64225599528e-12
4.552470342e-13
4.552470342e-13
2.73123714982e-12
2.48654991625e-11
2.52668808987e-11
3.64232380865e-12
2.74175282516e-11
2.30663742881e-10
2.76674095646e-11
2.31630643455e-10
4.5525551022e-13
4.5161082162e-13
4.535500891e-13
4.51680193482e-13
4.521081726e-13
4.38137133595e-13
2.67063591613e-12
2.4426570315e-11
2.54403327331e-11
3.64232380865e-12
2.52036021238e-11
2.63409909555e-12
3.64232380865e-12
4.20076390214e-13
4.53490630992e-13
2.92938014518e-12
2.63793115403e-11
2.61678771191e-11
3.15983059478e-12
2.68872434115e-11
2.59736082406e-12
2.55510094467e-12
4.5525551022e-13
4.39878248908e-13
4.63387537222e-13
4.52825670701e-13
4.51680193482e-13
4.5525551022e-13
4.5161082162e-13
4.52871486476e-13
4.51680193482e-13
4.67655050126e-13
4.52697321216e-13
4.35948464165e-13
4.51680193482e-13
4.5525551022e-13
4.55325441942e-13
4.5161082162e-13
4.55325441942e-13
4.5161082162e-13
4.55491125135e-13
4.55325441942e-13
4.67558990976e-13
4.55325441942e-13
4.5161082162e-13
4.55921724581e-13
4.65467434771e-13
4.55367037991e-13
4.55482641302e-13
4.516023456e-13
4.516023456e-13
4.52653731954e-13
4.18134538675e-13
4.58654802795e-13
3.64225599528e-12
4.5531696462e-13
4.5531696462e-13
4.36645859274e-13
3.35722350634e-12
3.64230685531e-12
3.64202712972e-12
4.5525551022e-13
4.51680193482e-13
4.55325441942e-13
4.65608889257e-13
4.5161082162e-13
4.5525551022e-13
4.3709284165e-13
4.5525551022e-13
4.55325441942e-13
4.5525551022e-13
4.29733154497e-13
4.5525551022e-13
4.5531696462e-13
4.552470342e-13
4.55358711379e-13
4.5531696462e-13
4.65459710463e-13
4.5160658361e-13
3.64227174837e-12
3.64209653055e-12
3.64209614204e-12
4.5160658361e-13
4.5525551022e-13
4.17970812772e-13
4.36591389045e-13
4.55362874685e-13
4.5525127221e-13
3.64232380865e-12
3.64232380865e-12
3.64232380865e-12
4.55321203281e-13
4.67379848471e-13
4.36692407961e-13
4.5161082162e-13
4.5543429614e-13
3.64232380865e-12
3.64204408176e-12
4.52867284146e-13
3.64204408176e-12
4.5160658361e-13
4.5525127221e-13
4.55486883218e-13
3.64232380865e-12
3.64232380865e-12
3.64232380865e-12
4.65427979474e-13
4.5160658361e-13
3.64232380865e-12
4.5525551022e-13
4.51675954821e-13
4.5160658361e-13
4.51675954821e-13
4.55325441942e-13
3.64232380865e-12
3.64232380865e-12
4.16644987013e-13
4.5160658361e-13
4.52104920041e-13
4.55325441942e-13
4.5525551022e-13
4.5160658361e-13
3.64232380865e-12
3.64232380865e-12
4.56091834753e-13
3.64232380865e-12
4.51675954821e-13
4.5160658361e-13
4.5161082162e-13
4.54648012969e-13
3.64232380865e-12
4.5525127221e-13
4.66015060822e-13
4.5525551022e-13
4.52344946298e-13
4.67992412198e-13
4.5160658361e-13
3.64232380865e-12
3.64204408176e-12
3.64232380865e-12
4.67976252681e-13
4.5160658361e-13
4.65466188002e-13
4.46578709087e-13
3.64232380865e-12
4.5525551022e-13
4.5525551022e-13
4.55325441942e-13
4.53612412021e-13
4.5161082162e-13
3.99973330133e-13
4.53360383617e-13
3.64232380865e-12
3.64484135064e-12
4.5525127221e-13
3.64512129237e-12
4.64232635665e-13
4.5657099255e-13
4.53403793422e-13
4.5525551022e-13
4.5595482744e-13
4.5595482744e-13
4.34969532745e-13
3.99136819672e-13
4.5525127221e-13
4.5160658361e-13
4.5525551022e-13
3.64232380865e-12
4.6555040658e-13
4.5525551022e-13
4.5525551022e-13
4.16629937188e-13
4.66024995408e-13
4.55325441942e-13
4.63300461545e-13
3.64232380865e-12
3.64232380865e-12
4.55325441942e-13
4.55325441942e-13
3.64232380865e-12
4.5595058292e-13
3.64512129237e-12
3.64204408176e-12
4.5525127221e-13
4.5525127221e-13
3.64484135064e-12
4.5595058292e-13
4.56627915594e-13
4.6861758468e-13
4.5525551022e-13
4.51680193482e-13
4.55325441942e-13
4.68095932927e-13
4.56604638035e-13
4.55321203281e-13
4.5525127221e-13
3.64232380865e-12
3.64232380865e-12
4.55321203281e-13
3.64232380865e-12
4.5525127221e-13
4.5161082162e-13
4.40905073504e-13
4.36116105445e-13
4.5161082162e-13
4.5161082162e-13
4.55438537568e-13
4.5525127221e-13
3.64232380865e-12
3.64204408176e-12
4.65445037574e-13
4.5525127221e-13
3.64204408176e-12
4.5525127221e-13
3.64510432601e-12
3.40871446309e-12
3.64230685531e-12
3.41478446404e-12
3.64230685531e-12
3.53393195207e-12
3.64510432601e-12
4.56137869531e-13
4.55154189783e-13
4.5161082162e-13
4.67558990976e-13
4.5230454024e-13
4.5230454024e-13
3.64232380865e-12
4.55321203281e-13
4.5525127221e-13
4.51680193482e-13
4.5161082162e-13
3.64232380865e-12
4.55321203281e-13
4.5525127221e-13
4.52924432226e-13
4.5161082162e-13
4.5595058292e-13
3.64512129237e-12
3.64232380865e-12
4.55321203281e-13
3.64512129237e-12
4.56020621412e-13
4.5525127221e-13
4.65445037574e-13
4.51675954821e-13
3.64232380865e-12
3.64232380865e-12
4.5160658361e-13
4.55660337886e-13
3.64232380865e-12
4.51938891985e-13
4.16645994337e-13
4.51680193482e-13
4.5230454024e-13
4.51680193482e-13
4.5161082162e-13
4.6737984847e-13
3.64232380865e-12
3.64232380865e-12
4.67869896053e-13
4.5543429614e-13
3.64232380865e-12
4.55321203281e-13
4.5595058292e-13
3.64232380865e-12
3.64512129237e-12
4.55321203281e-13
4.53102625825e-13
3.64512129237e-12
4.5525127221e-13
4.5230454024e-13
4.55491125135e-13
4.52374018664e-13
4.5161082162e-13
4.5525127221e-13
3.64232380865e-12
3.64204408176e-12
4.5525127221e-13
3.64232380865e-12
4.44386517566e-13
4.5525551022e-13
4.55325441942e-13
4.44737961166e-13
4.5161082162e-13
4.5525551022e-13
4.5525551022e-13
4.67384161671e-13
4.5525551022e-13
4.5161082162e-13
4.56043406748e-13
4.55321203281e-13
4.5525127221e-13
3.64232380865e-12
3.64232380865e-12
4.5525127221e-13
3.64232380865e-12
4.55321203281e-13
4.5161082162e-13
4.5525551022e-13
4.5525551022e-13
4.5161082162e-13
4.55321203281e-13
3.64232380865e-12
3.64232380865e-12
4.6737984847e-13
3.64232380865e-12
4.5525127221e-13
3.64204408176e-12
4.5525127221e-13
3.64232380865e-12
4.5525127221e-13
3.64232380865e-12
4.5525127221e-13
4.5525127221e-13
3.64232380865e-12
3.64232380865e-12
3.64232380865e-12
4.55321203281e-13
4.65449303858e-13
4.5161082162e-13
4.55325441942e-13
4.55325441942e-13
4.67384161671e-13
4.55491125135e-13
4.5525551022e-13
4.52854274911e-13
4.55325441942e-13
4.5525551022e-13
4.51680193482e-13
3.64230685531e-12
3.52372120622e-12
3.11122819966e-12
3.64230685531e-12
3.38540342819e-12
3.64230685531e-12
3.64230685531e-12
3.64232380865e-12
4.56024866584e-13
4.68195462539e-13
4.51680193482e-13
4.5525551022e-13
4.55325441942e-13
4.52374018664e-13
4.5595482744e-13
4.5525551022e-13
4.67558990976e-13
4.5161082162e-13
4.5525551022e-13
4.55438537568e-13
4.67838240161e-13
4.5525551022e-13
4.55321203281e-13
4.5525127221e-13
3.64232380865e-12
3.64232380865e-12
4.5525127221e-13
4.55321203281e-13
3.64232380865e-12
4.5595482744e-13
4.5525551022e-13
4.44318265913e-13
4.5230454024e-13
4.5525551022e-13
4.5230454024e-13
4.5595482744e-13
3.64510432601e-12
2.94976502362e-12
3.64230685531e-12
3.35167208944e-12
3.64230685531e-12
3.64510432601e-12
3.28669434822e-12
3.64230685531e-12
3.07910000786e-12
3.64202712972e-12
3.51759538285e-12
3.64230685531e-12
3.64202712972e-12
3.37904210662e-12
4.55325441942e-13
4.5525551022e-13
4.5525551022e-13
4.5161082162e-13
4.51680193482e-13
4.55325441942e-13
4.37025710205e-13
4.5525551022e-13
4.55325441942e-13
4.5595482744e-13
4.55325441942e-13
4.52374018664e-13
4.18635720821e-13
4.56024866584e-13
4.5525551022e-13
3.64225599528e-12
4.6804074367e-13
4.52823469837e-13
4.516023456e-13
4.23645199107e-13
4.516023456e-13
4.53736969367e-13
4.55358711379e-13
4.516023456e-13
4.52274169245e-13
4.5167171616e-13
4.516023456e-13
4.5167171616e-13
4.516023456e-13
4.46274888577e-13
4.559463384e-13
4.5531696462e-13
4.5601637624e-13
4.67798620498e-13
4.552470342e-13
4.552470342e-13
4.559463384e-13
4.16954010477e-13
3.642145794e-12
4.5603393084e-13
4.67987087485e-13
4.6737553527e-13
3.642145794e-12
3.6424255287e-12
3.6424255287e-12
3.64225599528e-12
3.64225599528e-12
3.1083324047e-12
3.64225599528e-12
3.07675964454e-12
2.99453139168e-12
3.0652927397e-12
3.64225599528e-12
3.64225599528e-12
3.18981282018e-12
3.64225599528e-12
3.30002653657e-12
3.15914911552e-12
3.09627906059e-12
4.5531696462e-13
3.6424255287e-12
3.6424255287e-12
4.552470342e-13
3.642145794e-12
3.6424255287e-12
4.67828652945e-13
3.64225599528e-12
3.51226331925e-12
4.552470342e-13
3.642145794e-12
3.6424255287e-12
3.35008693362e-12
4.67604076011e-13
3.64225599528e-12
3.18734349607e-12
4.5531696462e-13
3.6424255287e-12
3.6424255287e-12
3.13875747454e-12
3.64225599528e-12
3.64225599528e-12
3.32710228736e-12
3.64225599528e-12
3.18545011719e-12
3.03359813218e-12
3.11206182798e-12
3.64225599528e-12
3.6419762736e-12
3.64225599528e-12
2.98518621631e-12
3.16713632481e-12
3.01929282413e-12
3.06742444313e-12
3.64225599528e-12
3.6419762736e-12
3.64225599528e-12
2.9577680213e-12
2.87402678428e-12
2.98792042838e-12
2.93679655251e-12
3.64225599528e-12
3.64225599528e-12
3.64225599528e-12
3.0659451239e-12
3.30644269194e-12
3.0502052303e-12
3.35469432858e-12
3.64225599528e-12
3.64225599528e-12
3.64225599528e-12
2.96670824897e-12
2.82372598675e-12
2.94562960824e-12
2.83553772177e-12
3.64505342692e-12
3.64225599528e-12
3.58186859228e-12
3.64505342692e-12
3.4928348677e-12
3.30708966451e-12
3.51885070764e-12
3.64225599528e-12
3.6419762736e-12
3.64225599528e-12
3.17659976331e-12
3.36688342122e-12
3.09704222414e-12
3.43297446412e-12
3.64225599528e-12
3.6447734904e-12
3.64505342692e-12
3.33019450198e-12
3.642145794e-12
3.56149628287e-12
3.53886323983e-12
4.5525551022e-13
4.51675954821e-13
4.5160658361e-13
4.55325441942e-13
4.51675954821e-13
4.5160658361e-13
4.55325441942e-13
4.5525551022e-13
4.51675954821e-13
4.5160658361e-13
4.55325441942e-13
4.51675954821e-13
4.5160658361e-13
4.55325441942e-13
4.5525551022e-13
4.55325441942e-13
4.55325441942e-13
4.51675954821e-13
4.5160658361e-13
4.5160658361e-13
4.51675954821e-13
4.5525551022e-13
4.55325441942e-13
4.55325441942e-13
4.3709072232e-13
4.5160658361e-13
4.44315087405e-13
4.51675954821e-13
3.6424255287e-12
3.64225599528e-12
3.24371171088e-12
3.26098601325e-12
3.6424255287e-12
4.5531696462e-13
4.65598034189e-13
4.5531696462e-13
4.5167171616e-13
4.5531696462e-13
4.552470342e-13
4.516023456e-13
4.516023456e-13
4.552470342e-13
4.552470342e-13
4.516023456e-13
4.552470342e-13
4.552470342e-13
4.516023456e-13
4.516023456e-13
4.552470342e-13
4.5531696462e-13
4.6754612331e-13
4.516023456e-13
4.5167171616e-13
4.52274169245e-13
4.552470342e-13
4.5531696462e-13
4.5161082162e-13
4.51680193482e-13
4.51680193482e-13
3.15162287218e-12
3.64230685531e-12
3.64230685531e-12
4.37300727782e-13
4.34847524422e-13
2.78713902554e-12
3.64202712972e-12
3.64230685531e-12
4.5161082162e-13
4.51680193482e-13
4.44386517566e-13
4.09324662551e-13
4.29733154497e-13
4.2244059879e-13
4.18329272956e-13
4.37025710205e-13
2.80483652108e-12
3.64230685531e-12
3.64230685531e-12
4.5531696462e-13
4.54227869263e-13
4.68045236258e-13
4.38461192268e-13
4.6804074367e-13
4.67617319955e-13
4.52825608525e-13
4.5525551022e-13
4.3628210731e-13
4.5600560742e-13
4.65624052601e-13
4.52160003177e-13
4.36133907274e-13
3.64232380865e-12
3.64230685531e-12
4.66086645317e-13
4.5525551022e-13
4.55325441942e-13
4.5525551022e-13
4.67455333425e-13
4.5525551022e-13
4.55325441942e-13
4.65624052601e-13
3.12024512142e-12
3.64232380865e-12
3.64512129237e-12
4.66143586367e-13
3.64230685531e-12
3.64510432601e-12
4.63219410747e-13
3.1267236588e-12
3.64232380865e-12
3.64232380865e-12
4.67608391333e-13
3.64230685531e-12
3.64230685531e-12
4.55321203281e-13
4.44318265913e-13
4.43797566548e-13
3.64232380865e-12
4.5525551022e-13
3.64232380865e-12
4.5525127221e-13
3.64232380865e-12
4.55325441942e-13
3.64232380865e-12
3.20901892575e-12
3.64232380865e-12
3.40742255884e-12
4.5161082162e-13
4.51680193482e-13
4.51680193482e-13
4.18748912211e-13
4.5525551022e-13
4.55325441942e-13
4.67437850495e-13
4.67819379828e-13
4.67558990976e-13
4.5525551022e-13
4.5525551022e-13
4.29732094995e-13
4.09944362837e-13
4.2244059879e-13
4.18313465103e-13
4.5525551022e-13
4.5525551022e-13
4.55435355643e-13
4.5160658361e-13
4.55348881988e-13
4.67437850495e-13
4.65450143149e-13
3.95444823149e-13
3.91693241962e-13
4.18199651364e-13
4.55325441942e-13
4.5525551022e-13
4.5160658361e-13
4.51675954821e-13
2.8431551758e-12
2.8798081484e-12
3.07704029957e-12
3.64510432601e-12
3.64202712972e-12
3.64230685531e-12
3.64482438558e-12
4.5161082162e-13
4.51680193482e-13
4.51680193482e-13
4.67817248014e-13
4.55438537568e-13
4.55851671841e-13
3.91494002764e-13
4.2244059879e-13
4.29733154498e-13
4.37025710205e-13
4.09961267315e-13
3.91540702513e-13
2.65684404335e-12
3.64230685531e-12
3.64230685531e-12
4.5161082162e-13
4.29799165735e-13
4.44386517566e-13
4.44318265912e-13
2.76560219668e-12
2.66582766056e-12
2.68528306901e-12
3.64510432601e-12
3.64230685531e-12
3.64510432601e-12
3.64230685531e-12
4.55438537568e-13
4.51680193482e-13
4.5161082162e-13
4.18041548549e-13
4.09945481502e-13
4.18361530559e-13
4.09324662551e-13
3.91540702513e-13
4.29733154498e-13
2.88632086712e-12
2.91371630738e-12
2.72012601065e-12
3.64230685531e-12
3.64230685531e-12
3.64230685531e-12
3.64230685531e-12
4.56086568242e-13
4.55431114215e-13
4.52875291178e-13
4.55483700968e-13
4.5531696462e-13
4.516023456e-13
4.5167171616e-13
4.552470342e-13
4.67429223106e-13
4.5531696462e-13
4.552470342e-13
4.65457867434e-13
4.6737129726e-13
4.17117053804e-13
4.18150622988e-13
4.5535655098e-13
4.5210378193e-13
4.65452252008e-13
4.68001025538e-13
4.552470342e-13
4.5167171616e-13
4.516023456e-13
4.5531696462e-13
4.516023456e-13
4.516023456e-13
4.516023456e-13
4.516023456e-13
3.6424255287e-12
4.5531696462e-13
3.6424255287e-12
4.65416666292e-13
3.64225599528e-12
3.22676926358e-12
3.6424255287e-12
3.42750563014e-12
4.66269567087e-13
4.516023456e-13
4.516023456e-13
4.516023456e-13
4.516023456e-13
3.64522309055e-12
3.6424255287e-12
4.559463384e-13
3.64522309055e-12
4.5531696462e-13
4.33960671054e-13
4.5353961093e-13
4.516023456e-13
4.56069785849e-13
4.516023456e-13
4.6803862434e-13
4.39477787642e-13
4.53540012849e-13
4.65428876615e-13
4.37971875118e-13
4.54060598717e-13
4.516023456e-13
4.5167171616e-13
4.5167171616e-13
4.516023456e-13
4.516023456e-13
4.55483700968e-13
4.55860683125e-13
4.5167171616e-13
4.516023456e-13
4.5167171616e-13
4.5167171616e-13
4.516023456e-13
4.5210489156e-13
4.37551643167e-13
4.17966572538e-13
2.95596931562e-12
3.64232380865e-12
2.92835743025e-12
4.1798684964e-13
4.1663000689e-13
4.521081726e-13
4.5525551022e-13
4.51675954821e-13
4.5160658361e-13
4.55325441942e-13
4.5160658361e-13
4.55325441942e-13
4.51675954821e-13
4.51680193482e-13
4.5161082162e-13
4.51680193482e-13
4.34778255744e-13
4.67978430927e-13
4.535500891e-13
4.34778255744e-13
4.67978430927e-13
4.52160003177e-13
4.5161082162e-13
4.5161082162e-13
4.36183668344e-13
4.5161082162e-13
4.51680193482e-13
4.34778255744e-13
4.67978430927e-13
4.54119013784e-13
4.67978430927e-13
4.34778255744e-13
4.54250583703e-13
4.18135089342e-13
4.36053302201e-13
4.16975504302e-13
4.53490630992e-13
4.51619060676e-13
4.52289336929e-13
4.17986709076e-13
4.67384161671e-13
4.55434892528e-13
4.67384161671e-13
4.55970944371e-13
4.52119812181e-13
4.65433854359e-13
4.53492733071e-13
4.5228933693e-13
4.55434892528e-13
4.02037956433e-13
4.55414291157e-13
4.63387537222e-13
4.04204229493e-13
4.57932903925e-13
4.65433854359e-13
4.55434892528e-13
4.2250699216e-13
4.55325254592e-13
4.51680193482e-13
4.55611967223e-13
4.5161082162e-13
4.5525551022e-13
4.44383338571e-13
4.2244059879e-13
4.55325441942e-13
4.370235912e-13
4.55325441942e-13
4.2979810607e-13
4.51680193482e-13
4.5161082162e-13
4.51680193482e-13
4.52104972447e-13
4.65553639291e-13
4.67855206128e-13
4.36215446547e-13
4.67384161671e-13
4.16694632605e-13
4.51680193482e-13
4.5161082162e-13
4.5161082162e-13
4.55361955461e-13
3.91222715842e-13
4.56216836403e-13
4.5566458143e-13
4.52275362474e-13
4.65372295433e-13
4.68031454354e-13
4.67558990976e-13
4.28956573123e-13
4.17017768324e-13
4.16652392914e-13
4.5161082162e-13
4.51680193482e-13
4.5161082162e-13
4.5525551022e-13
4.55325441942e-13
4.55325441942e-13
4.51675954821e-13
4.5160658361e-13
4.5160658361e-13
4.51675954821e-13
4.5525551022e-13
4.55325441942e-13
4.5525551022e-13
4.5160658361e-13
4.4438333857e-13
4.5160658361e-13
4.51675954821e-13
4.5161082162e-13
4.51680193482e-13
4.51680193482e-13
4.5525551022e-13
4.55325441942e-13
4.5525551022e-13
4.5160658361e-13
4.51675954821e-13
4.5160658361e-13
4.51675954821e-13
4.51680193482e-13
4.5161082162e-13
4.51680193482e-13
4.51680193482e-13
4.5161082162e-13
4.5161082162e-13
4.09323695388e-13
4.3709284165e-13
4.5525551022e-13
4.67437850495e-13
4.29733154497e-13
4.18041548549e-13
4.65467434772e-13
4.5525551022e-13
4.65483234e-13
4.67630189586e-13
4.18377715992e-13
4.18329272956e-13
4.29732094995e-13
3.95432544743e-13
4.5525551022e-13
4.67612706655e-13
4.5525551022e-13
4.29732094995e-13
4.29798106069e-13
4.44315087405e-13
4.18361530559e-13
4.55438537568e-13
4.51680193482e-13
4.56096043985e-13
4.52522193524e-13
4.67870887449e-13
4.65793774487e-13
4.09944362837e-13
3.91539676666e-13
3.91382206919e-13
4.67437850495e-13
4.09323695387e-13
4.52888837847e-13
4.18041548549e-13
4.67874160723e-13
4.65468180624e-13
4.55438537568e-13
3.95258348765e-13
4.52888837847e-13
4.5167171616e-13
4.5531696462e-13
4.5531696462e-13
4.552470342e-13
4.516023456e-13
4.516023456e-13
4.552470342e-13
4.5531696462e-13
4.5167171616e-13
4.516023456e-13
4.552470342e-13
4.5167171616e-13
4.5531696462e-13
4.552470342e-13
4.5531696462e-13
4.552470342e-13
4.5167171616e-13
4.516023456e-13
4.5167171616e-13
4.5531696462e-13
4.552470342e-13
4.55482641302e-13
4.552470342e-13
4.5531696462e-13
4.5531696462e-13
4.53471102945e-13
4.5167171616e-13
4.552470342e-13
4.552470342e-13
4.52274169246e-13
4.52274169245e-13
4.65413671905e-13
4.516023456e-13
4.6754612331e-13
4.6754612331e-13
4.5531696462e-13
4.552470342e-13
4.53471102945e-13
4.5167171616e-13
4.5167171616e-13
4.552470342e-13
4.5531696462e-13
4.65449636958e-13
4.52309097489e-13
4.65798111415e-13
4.18134538675e-13
4.6759983735e-13
4.52527087353e-13
4.67822138672e-13
4.36680426022e-13
4.52562662225e-13
4.16954010477e-13
4.65852158287e-13
4.55860683125e-13
4.55179567477e-13
4.516023456e-13
4.55431114215e-13
4.55483700967e-13
4.51680193482e-13
4.5161082162e-13
4.5525551022e-13
4.55325441942e-13
4.55325441942e-13
4.5161082162e-13
4.51680193482e-13
4.5161082162e-13
4.51680193482e-13
4.5161082162e-13
4.5161082162e-13
4.55325441942e-13
4.5525551022e-13
4.51680193482e-13
4.5525551022e-13
4.51680193482e-13
4.5161082162e-13
4.51680193482e-13
4.18299131951e-13
4.67630189586e-13
4.67384161671e-13
4.55325441942e-13
4.52347458978e-13
4.521081726e-13
4.5161082162e-13
4.5161082162e-13
4.5161082162e-13
4.5161082162e-13
4.5525551022e-13
4.5525551022e-13
4.5161082162e-13
4.5525551022e-13
4.5161082162e-13
4.5161082162e-13
4.44318265912e-13
4.22505489819e-13
4.29733154498e-13
3.91538774797e-13
4.55491125135e-13
4.5161082162e-13
4.5525551022e-13
4.55325441942e-13
4.5161082162e-13
4.55325441942e-13
4.51680193482e-13
4.55348881988e-13
4.55325441942e-13
4.56094985513e-13
4.5525551022e-13
4.67873102197e-13
4.5525551022e-13
4.55438537568e-13
4.5525551022e-13
4.5525551022e-13
4.5525551022e-13
4.5525551022e-13
4.5525551022e-13
4.67558990976e-13
4.5525551022e-13
4.18041548549e-13
4.17993532238e-13
3.95273315157e-13
4.18215836797e-13
4.09624206244e-13
3.95585710822e-13
4.67455333425e-13
4.5525551022e-13
4.55325441942e-13
4.52870384143e-13
4.55325441942e-13
4.65448269527e-13
4.65662532146e-13
3.6424255287e-12
4.516023456e-13
3.6424255287e-12
4.552470342e-13
4.5531696462e-13
3.6424255287e-12
3.6424255287e-12
3.6424255287e-12
4.552470342e-13
3.6424255287e-12
4.5601637624e-13
3.6424255287e-12
3.64522309055e-12
4.55430054713e-13
4.6808729339e-13
3.64522309055e-12
3.6424255287e-12
4.55290476081e-13
4.5160658361e-13
4.5525551022e-13
4.5160658361e-13
4.5525551022e-13
4.5525551022e-13
4.51623926413e-13
4.55290476081e-13
4.5160658361e-13
4.51658612018e-13
4.5525551022e-13
4.55290476081e-13
4.5160658361e-13
4.5525551022e-13
4.51623926413e-13
4.55290476081e-13
4.51675954821e-13
4.5525551022e-13
4.5160658361e-13
4.55325441942e-13
4.51658612018e-13
4.5525551022e-13
4.5525551022e-13
4.52173841591e-13
4.5160658361e-13
4.55325441942e-13
4.51675954821e-13
4.5541801284e-13
4.67455333426e-13
4.37658029846e-13
4.18927183398e-13
4.67978430927e-13
4.20774157717e-13
4.34778255744e-13
4.6873834259e-13
4.5525551022e-13
4.55325441942e-13
4.65463945543e-13
4.67833975816e-13
4.6737984847e-13
4.55325441942e-13
4.5525551022e-13
4.55325441942e-13
4.5525551022e-13
4.55321203281e-13
4.5525127221e-13
4.55321203281e-13
4.55325441942e-13
4.5525551022e-13
4.5525551022e-13
4.674335368e-13
4.5525127221e-13
4.55325441942e-13
4.5525127221e-13
4.55325441942e-13
4.5525551022e-13
4.55325441942e-13
4.65517180642e-13
4.5525127221e-13
4.5525551022e-13
4.55321203281e-13
4.55325441942e-13
4.5525551022e-13
4.33032126618e-13
4.18003108776e-13
4.36132902179e-13
4.521081726e-13
4.1663000689e-13
4.10206443538e-13
4.5525551022e-13
4.5525551022e-13
4.5160658361e-13
4.52884703307e-13
4.5525551022e-13
4.5525551022e-13
4.56039198003e-13
4.55325441942e-13
4.5525551022e-13
4.5543429614e-13
4.65481612923e-13
4.55362874685e-13
4.5525551022e-13
4.55325441942e-13
4.55325441942e-13
4.51675954821e-13
4.5525551022e-13
4.5160658361e-13
4.55325441942e-13
4.55486883219e-13
4.5525551022e-13
4.5525551022e-13
4.65463168322e-13
4.5525551022e-13
4.6737984847e-13
4.5525551022e-13
4.67833975816e-13
4.5525551022e-13
4.5525551022e-13
4.51675954821e-13
4.55325441942e-13
4.56039198003e-13
4.55325441942e-13
4.5160658361e-13
4.5525551022e-13
4.55325441942e-13
4.55416953337e-13
4.51675954821e-13
4.5525551022e-13
4.5525551022e-13
4.51675954821e-13
4.55325441942e-13
4.5160658361e-13
4.55325441942e-13
4.52920297365e-13
4.55309916351e-13
4.5525551022e-13
4.55486883218e-13
4.55325441942e-13
4.5525551022e-13
4.6743679083e-13
4.5525551022e-13
4.36148047056e-13
4.51675954821e-13
4.6546534083e-13
4.55325441942e-13
4.5213982228e-13
4.67383102168e-13
4.51675954821e-13
4.55325441942e-13
4.52104920041e-13
4.65466063626e-13
4.52885728437e-13
4.17968770476e-13
4.5525551022e-13
4.5160658361e-13
4.55325441942e-13
4.51675954821e-13
4.55325441942e-13
4.5525551022e-13
4.5160658361e-13
4.55325441942e-13
4.5525551022e-13
4.52173789182e-13
4.5160658361e-13
4.51675954821e-13
4.6745427376e-13
4.5525551022e-13
4.5525551022e-13
4.55325441942e-13
4.51675954821e-13
4.5160658361e-13
4.5160658361e-13
4.55325441942e-13
4.5525551022e-13
4.5525551022e-13
4.3611502477e-13
4.52156750288e-13
4.67872033867e-13
4.5160658361e-13
4.65447210025e-13
4.6743679083e-13
4.55325441942e-13
4.5160658361e-13
4.51675954821e-13
4.5525551022e-13
4.51675954821e-13
4.5525551022e-13
4.55325441942e-13
4.17985764964e-13
4.16629937188e-13
4.55364943833e-13
4.67383102168e-13
4.16628999567e-13
4.18001066324e-13
4.67836113468e-13
4.65483731115e-13
4.5160658361e-13
4.55487942884e-13
4.55487942884e-13
4.56040257505e-13
4.55435355643e-13
4.56092894418e-13
4.52868309277e-13
4.51675954821e-13
4.55325441942e-13
4.5525551022e-13
4.51675954821e-13
4.5160658361e-13
4.55325441942e-13
4.5525551022e-13
4.51675954821e-13
4.5525551022e-13
4.55325441942e-13
4.51675954821e-13
4.5543429614e-13
4.55325441942e-13
4.5160658361e-13
4.5525551022e-13
4.5525551022e-13
4.5160658361e-13
4.55325441942e-13
4.51675954821e-13
4.55325441942e-13
4.5525551022e-13
4.5160658361e-13
4.55325441942e-13
4.5160658361e-13
4.5525551022e-13
4.51675954821e-13
4.5525551022e-13
4.51675954821e-13
4.55325441942e-13
4.5161082162e-13
4.5161082162e-13
4.5161082162e-13
4.5161082162e-13
4.51680193482e-13
4.51680193482e-13
4.5525551022e-13
4.5525551022e-13
4.5525127221e-13
4.5525127221e-13
4.5525127221e-13
4.5525551022e-13
4.5525551022e-13
4.55325441942e-13
4.5525127221e-13
4.5525551022e-13
4.55321203281e-13
4.5525551022e-13
4.55321203281e-13
4.55325441942e-13
4.51619060676e-13
4.52101502562e-13
4.55434892528e-13
4.36204076745e-13
4.53490630992e-13
4.53552208431e-13
4.65554673838e-13
4.67980549932e-13
4.52825670701e-13
4.55325441942e-13
4.5525551022e-13
4.67976252681e-13
4.56075052415e-13
4.53548029011e-13
4.5525551022e-13
4.55325441942e-13
4.5525551022e-13
4.5525551022e-13
4.5160658361e-13
4.5160658361e-13
4.5160658361e-13
4.5525551022e-13
4.5525551022e-13
4.5525551022e-13
4.5160658361e-13
4.5160658361e-13
4.5525551022e-13
4.5160658361e-13
4.5525551022e-13
4.5525551022e-13
4.5525551022e-13
4.5525551022e-13
4.67612706656e-13
4.55199495316e-13
4.65466188002e-13
4.5525551022e-13
4.5525551022e-13
4.5525551022e-13
4.5525551022e-13
4.65425198458e-13
4.57648681618e-13
4.68032007464e-13
4.5525551022e-13
4.5525551022e-13
4.5525551022e-13
4.55504879098e-13
4.57286283458e-13
4.66024995408e-13
4.55199495316e-13
4.5525551022e-13
4.5525551022e-13
4.5227856317e-13
4.5227856317e-13
4.18136484134e-13
4.36682687907e-13
4.16942016932e-13
4.55325441942e-13
4.5595482744e-13
4.53477400719e-13
4.56186289407e-13
4.5525551022e-13
4.56024866584e-13
4.55486883218e-13
4.5525551022e-13
4.5525551022e-13
4.67554676148e-13
4.67554676148e-13
4.5525551022e-13
4.6542536571e-13
4.5525551022e-13
4.55325441942e-13
4.57285513494e-13
4.5525551022e-13
4.65862736096e-13
4.55325441942e-13
4.5525551022e-13
4.52572073557e-13
4.5525551022e-13
4.56116252148e-13
4.5595482744e-13
4.67831760727e-13
4.5595482744e-13
4.55132941459e-13
4.5525551022e-13
4.5525551022e-13
4.5595482744e-13
4.53559585563e-13
4.56204312923e-13
4.5525551022e-13
4.5595482744e-13
4.51688992398e-13
4.67803014577e-13
4.59258484791e-13
4.55325254592e-13
4.16702875619e-13
4.6021930948e-13
4.67384161671e-13
4.43824618976e-13
4.67384161671e-13
4.1294944463e-13
4.65433854359e-13
4.5525551022e-13
4.44787002813e-13
4.65553639291e-13
4.52692132476e-13
4.62257488285e-13
4.68095932927e-13
4.36436103772e-13
4.5390449031e-13
4.62921311081e-13
4.5525551022e-13
4.52104920041e-13
4.5543429614e-13
4.42057267171e-13
4.67383102168e-13
4.5525551022e-13
4.49514045759e-13
4.17968462479e-13
4.59114029736e-13
4.6544802626e-13
4.56513076259e-13
4.55325254592e-13
4.5525551022e-13
4.55325254592e-13
4.5525551022e-13
4.55434892528e-13
4.65452145695e-13
4.5525551022e-13
4.521081726e-13
4.43363160909e-13
4.53514146414e-13
4.1798480625e-13
4.55927933347e-13
4.5525551022e-13
4.70267681223e-13
4.56529983168e-13
4.5525551022e-13
4.67394610254e-13
4.5525551022e-13
4.68014373613e-13
4.57217274213e-13
4.66024995408e-13
4.55433260843e-13
4.5525551022e-13
4.1798480625e-13
4.65452145695e-13
4.5525551022e-13
4.67437850495e-13
4.5525551022e-13
4.5525551022e-13
4.55325441942e-13
4.5525551022e-13
4.5525551022e-13
4.67612706656e-13
4.55325441942e-13
4.5525551022e-13
4.23710810541e-13
4.67871945434e-13
4.53053730231e-13
4.65794808817e-13
4.09353040626e-13
4.53548832345e-13
4.0588650858e-13
4.68689568948e-13
4.05948856738e-13
4.53618501905e-13
4.51680193482e-13
4.5161082162e-13
4.55325441942e-13
4.5525551022e-13
4.51680193482e-13
4.55325441942e-13
4.5161082162e-13
4.5161082162e-13
4.51680193482e-13
4.5161082162e-13
4.5161082162e-13
4.67612706655e-13
4.5525551022e-13
4.51680193482e-13
4.5161082162e-13
4.5525551022e-13
4.52330419921e-13
4.3270643451e-13
4.65842943537e-13
4.18651552956e-13
4.5525551022e-13
3.95432544743e-13
4.67630189586e-13
4.37025710205e-13
4.70727618042e-13
4.5566458143e-13
3.95004840013e-13
4.56215777985e-13
4.5161082162e-13
4.5161082162e-13
4.5161082162e-13
4.40711845787e-13
4.52177042234e-13
4.5161082162e-13
4.51680193482e-13
4.5161082162e-13
4.5161082162e-13
4.5161082162e-13
4.51680193482e-13
4.5161082162e-13
4.51680193482e-13
4.56416629182e-13
4.36893436284e-13
4.14554500927e-13
4.55325441942e-13
4.5525551022e-13
4.67451019568e-13
4.5525127221e-13
4.55325441942e-13
4.55321203281e-13
4.5525551022e-13
4.5525551022e-13
4.5525127221e-13
4.5525551022e-13
4.5525127221e-13
4.5525551022e-13
4.5525551022e-13