/*--------------------------------*- C++ -*----------------------------------*\
| =========                 |                                                 |
| \\      /  F ield         | OpenFOAM: The Open Source CFD Toolbox           |
|  \\    /   O peration     | Version:  2406                                  |
|   \\  /    A nd           | Website:  www.openfoam.com                      |
|    \\/     M anipulation  |                                                 |
\*---------------------------------------------------------------------------*/
FoamFile
{
    version     2.0;
    format      ascii;
    arch        "LSB;label=32;scalar=64";
    class       volScalarField;
    location    "0";
    object      epsilon;
}
// * * * * * * * * * * * * * * * * * * * * * * * * * * * * * * * * * * * * * //

dimensions      [0 2 -3 0 0 0 0];

internalField   uniform 0.88;

boundaryField
{
    wall
    {
        type            epsilonWallFunction;
        value           uniform 0.88;
    }
    inlet
    {
        type            turbulentMixingLengthDissipationRateInlet;
        mixingLength    0.01;
        value           nonuniform List<scalar> 0();
    }
    outlet
    {
        type            inletOutlet;
        inletValue      nonuniform List<scalar> 0();
        value           nonuniform List<scalar> 0();
    }
    oversetPatch
    {
        type            overset;
        value           uniform 0.88;
    }
    seed
    {
        type            zeroGradient;
    }
    procBoundary22to14
    {
        type            processor;
        value           uniform 0.88;
    }
    procBoundary22to15
    {
        type            processor;
        value           uniform 0.88;
    }
    procBoundary22to16
    {
        type            processor;
        value           uniform 0.88;
    }
    procBoundary22to23
    {
        type            processor;
        value           uniform 0.88;
    }
    procBoundary22to28
    {
        type            processor;
        value           uniform 0.88;
    }
    procBoundary22to29
    {
        type            processor;
        value           uniform 0.88;
    }
    procBoundary22to30
    {
        type            processor;
        value           uniform 0.88;
    }
}


// ************************************************************************* //
